    1C
    1UHash: v5AunGqV, Date: 01/14/2026, Unit system: M_KG_S_C           
    1UUSER                                                              
    1UDATE              17.january.2026                                 
    1UTIME              13:00:23                                        
    1UHOST                                                              
    1UPGM               CalculiX                                        
    1UVERSION           Version 2.23                             
    1UCOMPILETIME       Sun Jan 11 00:39:44 CET 2026                    
    1UDIR                                                               
    1UDBN                                                               
    1UMAT    1S235                                                      
    2C                            32                                     1
 -1         1-2.50000E-01 3.00000E-02-5.00000E-02
 -1         2-2.50000E-01-3.00000E-02-5.00000E-02
 -1         3 2.50000E-01-3.00000E-02-5.00000E-02
 -1         4 2.50000E-01 3.00000E-02-5.00000E-02
 -1         5 2.50000E-01-3.00000E-02 5.00000E-02
 -1         6 2.50000E-01 3.00000E-02 5.00000E-02
 -1         7-2.50000E-01-3.00000E-02 5.00000E-02
 -1         8-2.50000E-01 3.00000E-02 5.00000E-02
 -1         9-2.50000E-01 0.00000E+00-5.00000E-02
 -1        10 0.00000E+00-3.00000E-02-5.00000E-02
 -1        11-1.25000E-01-3.00000E-02-5.00000E-02
 -1        12 1.25000E-01-3.00000E-02-5.00000E-02
 -1        13 2.50000E-01 0.00000E+00-5.00000E-02
 -1        14 0.00000E+00 3.00000E-02-5.00000E-02
 -1        15-1.25000E-01 3.00000E-02-5.00000E-02
 -1        16 1.25000E-01 3.00000E-02-5.00000E-02
 -1        17 2.50000E-01-3.00000E-02 0.00000E+00
 -1        18 2.50000E-01 0.00000E+00 5.00000E-02
 -1        19 2.50000E-01 3.00000E-02 0.00000E+00
 -1        20 0.00000E+00-3.00000E-02 5.00000E-02
 -1        21 1.25000E-01-3.00000E-02 5.00000E-02
 -1        22-1.25000E-01-3.00000E-02 5.00000E-02
 -1        23-2.50000E-01 0.00000E+00 5.00000E-02
 -1        24 0.00000E+00 3.00000E-02 5.00000E-02
 -1        25 1.25000E-01 3.00000E-02 5.00000E-02
 -1        26-1.25000E-01 3.00000E-02 5.00000E-02
 -1        27-2.50000E-01-3.00000E-02 0.00000E+00
 -1        28-2.50000E-01 3.00000E-02 0.00000E+00
 -1        29 0.00000E+00 0.00000E+00-5.00000E-02
 -1        30 0.00000E+00 0.00000E+00 5.00000E-02
 -1        31 0.00000E+00 3.00000E-02 0.00000E+00
 -1        32 0.00000E+00-3.00000E-02 0.00000E+00
 -3
    3C                             2                                     1
 -1         1    4    0    1
 -2         1         2        10        14         8         7        20        24         9        11
 -2        29        15        28        27        32        31        23        22        30        26
 -1         2    4    0    1
 -2        14        10         3         4        24        20         5         6        29        12
 -2        13        16        31        32        17        19        30        21        18        25
 -3
    1PSTEP                         1           1           1          
  100CL  101 1.000000000          32                     0    1           1
 -4  DISP        4    1
 -5  D1          1    2    1    0
 -5  D2          1    2    2    0
 -5  D3          1    2    3    0
 -5  ALL         1    2    0    0    1ALL
 -1         1 0.00000E+00 0.00000E+00 0.00000E+00
 -1         2 0.00000E+00 0.00000E+00 0.00000E+00
 -1         3-9.43372E-06-9.95101E-05-6.66551E-08
 -1         4 9.43381E-06-9.95101E-05 6.69252E-08
 -1         5-9.43378E-06-9.95101E-05 6.69421E-08
 -1         6 9.43375E-06-9.95101E-05-6.66768E-08
 -1         7 0.00000E+00 0.00000E+00 0.00000E+00
 -1         8 0.00000E+00 0.00000E+00 0.00000E+00
 -1         9 0.00000E+00 0.00000E+00 0.00000E+00
 -1        10-6.78583E-06-2.95560E-05-2.58101E-07
 -1        11-3.54924E-06-7.69872E-06-3.79411E-07
 -1        12-8.41877E-06-6.17929E-05-1.58504E-07
 -1        13 3.89863E-11-9.95165E-05 1.33697E-10
 -1        14 6.78588E-06-2.95560E-05 2.58121E-07
 -1        15 3.54925E-06-7.69873E-06 3.79404E-07
 -1        16 8.41885E-06-6.17929E-05 1.58635E-07
 -1        17-9.42313E-06-9.95080E-05 1.43623E-10
 -1        18-1.55481E-11-9.95165E-05 1.31200E-10
 -1        19 9.42315E-06-9.95080E-05 1.22714E-10
 -1        20-6.78586E-06-2.95559E-05 2.58149E-07
 -1        21-8.41883E-06-6.17928E-05 1.58656E-07
 -1        22-3.54922E-06-7.69870E-06 3.79436E-07
 -1        23 0.00000E+00 0.00000E+00 0.00000E+00
 -1        24 6.78586E-06-2.95559E-05-2.58128E-07
 -1        25 8.41880E-06-6.17928E-05-1.58526E-07
 -1        26 3.54925E-06-7.69869E-06-3.79435E-07
 -1        27 0.00000E+00 0.00000E+00 0.00000E+00
 -1        28 0.00000E+00 0.00000E+00 0.00000E+00
 -1        29 2.66718E-11-2.94324E-05 1.12621E-11
 -1        30-3.44585E-12-2.94324E-05 9.79222E-12
 -1        31 6.80124E-06-2.98857E-05-2.84071E-12
 -1        32-6.80122E-06-2.98857E-05 2.06791E-11
 -3
    1PSTEP                         2           1           1          
  100CL  101 1.000000000          32                     0    1           1
 -4  STRESS      6    1
 -5  SXX         1    4    1    1
 -5  SYY         1    4    2    2
 -5  SZZ         1    4    3    3
 -5  SXY         1    4    1    2
 -5  SYZ         1    4    2    3
 -5  SZX         1    4    3    1
 -1         1 7.95856E+06 3.09500E+06 3.09499E+06-4.06516E+05 2.81730E+00 4.13273E+05
 -1         2-7.95856E+06-3.09500E+06-3.09499E+06-4.06511E+05 2.81732E+00-4.13289E+05
 -1         3-1.42148E+06-5.65218E+05-2.75721E+05-7.54735E+05 1.89503E+05 9.25562E+04
 -1         4 1.42139E+06 5.65083E+05 2.75637E+05-7.54717E+05 1.89542E+05-9.25566E+04
 -1         5-1.42144E+06-5.65186E+05-2.75702E+05-7.54718E+05-1.89528E+05-9.25557E+04
 -1         6 1.42141E+06 5.65117E+05 2.75677E+05-7.54738E+05-1.89529E+05 9.25546E+04
 -1         7-7.95847E+06-3.09496E+06-3.09496E+06-4.06485E+05-2.81704E+00 4.13306E+05
 -1         8 7.95859E+06 3.09501E+06 3.09501E+06-4.06477E+05-2.81699E+00-4.13312E+05
 -1         9 8.97880E-01 3.49347E-01 3.49425E-01-3.65979E+05 2.81696E+00-7.36558E+00
 -1        10-3.99405E+06 6.53478E+05 1.48747E+05-6.18305E+05-3.76258E+05 1.05456E+05
 -1        11-6.06475E+06-9.35693E+05-3.66552E+05 6.89643E+03 4.96439E+05-1.09894E+05
 -1        12-2.10463E+06 2.73771E+05 1.53384E+05 6.64858E+04-1.03985E+05 5.49915E+04
 -1        13-4.69415E+01-6.95109E+01-4.37700E+01-7.97406E+05 1.89523E+05 3.63734E+00
 -1        14 3.99413E+06-6.53496E+05-1.48746E+05-6.18309E+05-3.76265E+05-1.05466E+05
 -1        15 6.06479E+06 9.35673E+05 3.66565E+05 6.88926E+03 4.96442E+05 1.09906E+05
 -1        16 2.10467E+06-2.73744E+05-1.53387E+05 6.64960E+04-1.03987E+05-5.50071E+04
 -1        17-1.39353E+06-5.54318E+05-2.64844E+05-6.74913E+05-1.48617E+01 1.27310E+00
 -1        18-7.45083E+00-3.27902E+01-1.05907E+01-7.97408E+05-1.89529E+05 4.00900E+00
 -1        19 1.39350E+06 5.54273E+05 2.64813E+05-6.74912E+05 4.55459E+00-1.76476E+00
 -1        20-3.99413E+06 6.53498E+05 1.48782E+05-6.18319E+05 3.76253E+05-1.05464E+05
 -1        21-2.10468E+06 2.73703E+05 1.53376E+05 6.64995E+04 1.03985E+05-5.50109E+04
 -1        22-6.06475E+06-9.35637E+05-3.66509E+05 6.88575E+03-4.96464E+05 1.09930E+05
 -1        23 5.76243E+01 2.24096E+01 2.24097E+01-3.65947E+05-2.81736E+00-3.14986E+00
 -1        24 3.99406E+06-6.53495E+05-1.48780E+05-6.18304E+05 3.76265E+05 1.05474E+05
 -1        25 2.10461E+06-2.73823E+05-1.53420E+05 6.64948E+04 1.03973E+05 5.50067E+04
 -1        26 6.06478E+06 9.35712E+05 3.66566E+05 6.90028E+03-4.96452E+05-1.09905E+05
 -1        27-7.97502E+06-3.10140E+06-3.10140E+06-5.14723E+05-1.87120E-04 7.21858E+00
 -1        28 7.97507E+06 3.10142E+06 3.10142E+06-5.14721E+05-1.72342E-04-1.87892E+01
 -1        29 3.48390E+01-1.21490E+01-6.31682E+00-6.19380E+05-3.76261E+05-7.97655E+00
 -1        30-3.94206E+01-5.68330E-01-4.70023E+00-6.19385E+05 3.76259E+05 2.18364E+00
 -1        31 3.98839E+06-6.55710E+05-1.50980E+05-5.75963E+05 5.36655E+00 4.12179E+00
 -1        32-3.98838E+06 6.55711E+05 1.50985E+05-5.75970E+05 2.99358E+00-4.06784E+00
 -3
    1PSTEP                         3           1           1          
  100CL  101 1.000000000          32                     0    1           1
 -4  TOSTRAIN    6    1
 -5  EXX         1    4    1    1
 -5  EYY         1    4    2    2
 -5  EZZ         1    4    3    3
 -5  EXY         1    4    1    2
 -5  EYZ         1    4    2    3
 -5  EZX         1    4    3    1
 -1         1 2.96446E-05 1.52416E-11-5.96394E-12-2.47781E-06 1.71721E-11 2.51900E-06
 -1         2-2.96446E-05-1.52425E-11 5.96265E-12-2.47778E-06 1.71722E-11-2.51910E-06
 -1         3-5.64770E-06-4.28582E-07 1.33597E-06-4.60029E-06 1.15507E-06 5.64152E-07
 -1         4 5.64759E-06 4.28162E-07-1.33608E-06-4.60018E-06 1.15531E-06-5.64155E-07
 -1         5-5.64756E-06-4.28513E-07 1.33597E-06-4.60019E-06-1.15522E-06-5.64149E-07
 -1         6 5.64757E-06 4.28249E-07-1.33596E-06-4.60030E-06-1.15522E-06 5.64142E-07
 -1         7-2.96443E-05-1.52424E-11 5.96300E-12-2.47762E-06-1.71705E-11 2.51920E-06
 -1         8 2.96447E-05 1.52417E-11-5.96464E-12-2.47757E-06-1.71702E-11-2.51923E-06
 -1         9 3.34392E-12 4.82583E-16 9.60089E-16-2.23073E-06 1.71701E-11-4.48950E-11
 -1        10-2.00889E-05 8.23887E-06 5.16242E-06-3.76872E-06-2.29338E-06 6.42777E-07
 -1        11-2.71434E-05 4.11939E-06 7.58844E-06 4.20354E-08 3.02591E-06-6.69831E-07
 -1        12-1.05916E-05 3.90534E-06 3.17155E-06 4.05247E-07-6.33814E-07 3.35186E-07
 -1        13-7.24898E-11-2.10056E-10-5.31586E-11-4.86038E-06 1.15519E-06 2.21704E-11
 -1        14 2.00893E-05-8.23906E-06-5.16249E-06-3.76874E-06-2.29342E-06-6.42838E-07
 -1        15 2.71437E-05-4.11956E-06-7.58841E-06 4.19917E-08 3.02593E-06 6.69903E-07
 -1        16 1.05917E-05-3.90525E-06-3.17165E-06 4.05309E-07-6.33824E-07-3.35281E-07
 -1        17-5.54365E-06-4.28443E-07 1.33597E-06-4.11376E-06-9.05854E-11 7.75985E-12
 -1        18 2.23611E-11-1.32088E-10 3.22282E-12-4.86039E-06-1.15522E-06 2.44358E-11
 -1        19 5.54361E-06 4.28310E-07-1.33602E-06-4.11375E-06 2.77613E-11-1.07566E-11
 -1        20-2.00894E-05 8.23903E-06 5.16266E-06-3.76880E-06 2.29335E-06-6.42827E-07
 -1        21-1.05917E-05 3.90509E-06 3.17167E-06 4.05331E-07 6.33815E-07-3.35305E-07
 -1        22-2.71436E-05 4.11959E-06 7.58857E-06 4.19703E-08-3.02606E-06 6.70052E-07
 -1        23 2.14642E-10 5.91116E-16 7.91241E-16-2.23054E-06-1.71725E-11-1.91991E-11
 -1        24 2.00890E-05-8.23892E-06-5.16256E-06-3.76871E-06 2.29342E-06 6.42891E-07
 -1        25 1.05916E-05-3.90550E-06-3.17162E-06 4.05301E-07 6.33739E-07 3.35279E-07
 -1        26 2.71435E-05-4.11936E-06-7.58844E-06 4.20588E-08-3.02599E-06-6.69896E-07
 -1        27-2.97059E-05-1.52414E-11 5.96451E-12-3.13736E-06-1.14054E-15 4.39989E-11
 -1        28 2.97061E-05 1.52426E-11-5.96260E-12-3.13735E-06-1.05046E-15-1.14525E-10
 -1        29 1.90521E-10-9.58819E-11-6.03334E-11-3.77527E-06-2.29340E-06-4.86190E-11
 -1        30-1.80692E-10 5.61214E-11 3.09365E-11-3.77530E-06 2.29339E-06 1.33098E-11
 -1        31 2.00679E-05-8.23897E-06-5.16252E-06-3.51063E-06 3.27104E-11 2.51233E-11
 -1        32-2.00679E-05 8.23897E-06 5.16254E-06-3.51067E-06 1.82466E-11-2.47945E-11
 -3
    1PSTEP                         4           1           1          
  100CL  101 1.000000000          32                     0    1           1
 -4  FORC        4    1
 -5  F1          1    2    1    0
 -5  F2          1    2    2    0
 -5  F3          1    2    3    0
 -5  ALL         1    2    0    0    1ALL
 -1         1-1.51167E+03 5.99850E+03-9.29124E+02
 -1         2 1.51171E+03 5.99857E+03 9.29218E+02
 -1         3-2.91198E-11 8.33336E+01 4.94452E-10
 -1         4 8.99121E-11 8.33336E+01-9.15303E-11
 -1         5 9.60299E-12 8.33336E+01 2.89816E-10
 -1         6-2.89935E-11 8.33336E+01-9.18070E-11
 -1         7 1.51167E+03 5.99854E+03-9.29165E+02
 -1         8-1.51169E+03 5.99852E+03 9.29212E+02
 -1         9-5.05217E-02-1.35085E+04-8.65151E-02
 -1        10 5.34275E-11-1.72966E-10 2.60004E-10
 -1        11-1.69675E-02-1.46531E-02 2.28089E-03
 -1        12 8.64539E-02 5.07849E-02 8.05125E-04
 -1        13-1.65152E-02-3.33358E+02 3.67440E-02
 -1        14-9.76078E-11-1.20726E-09 2.33231E-11
 -1        15-1.21324E-02 5.24302E-02-1.16562E-01
 -1        16 2.09736E-02-2.62163E-02 9.57116E-02
 -1        17-1.71962E-02-3.33177E+02 1.97425E-02
 -1        18-2.82605E-02-3.33379E+02-5.65224E-02
 -1        19-2.06621E-02-3.33431E+02-1.88882E-02
 -1        20-5.59108E-13-1.02933E-09 3.29945E-10
 -1        21 5.67496E-03 1.73224E-01 4.30953E-02
 -1        22 1.01940E-01-1.77222E-01 1.11190E-01
 -1        23-3.41914E-02-1.35085E+04 3.57851E-02
 -1        24-6.65571E-11-1.99408E-10 4.27034E-11
 -1        25-1.25162E-02-1.95434E-01-1.17734E-01
 -1        26 6.83014E-02 1.30944E-01 2.84777E-02
 -1        27 5.30994E+03 2.01131E+03-4.12746E-02
 -1        28-5.31002E+03 2.01151E+03-7.72142E-02
 -1        29 4.94738E-12-1.37947E-09-2.12742E-10
 -1        30-1.05212E-10-6.12079E-10-5.68865E-11
 -1        31-2.06150E-10 8.29912E-11-4.80289E-11
 -1        32 7.03793E-12 1.62313E-10-3.85107E-10
 -3
 9999
