    1C
    1UHash: v5AunGqV, Date: 01/14/2026, Unit system: M_KG_S_C           
    1UUSER                                                              
    1UDATE              17.january.2026                                 
    1UTIME              12:51:26                                        
    1UHOST                                                              
    1UPGM               CalculiX                                        
    1UVERSION           Version 2.23                             
    1UCOMPILETIME       Sun Jan 11 00:39:44 CET 2026                    
    1UDIR                                                               
    1UDBN                                                               
    1UMAT    1S235                                                      
    2C                            12                                     1
 -1         1-2.50000E-01 5.00000E-02-5.00000E-02
 -1         2-2.50000E-01-5.00000E-02-5.00000E-02
 -1         3 2.50000E-01-5.00000E-02-5.00000E-02
 -1         4 2.50000E-01 5.00000E-02-5.00000E-02
 -1         5 2.50000E-01-5.00000E-02 5.00000E-02
 -1         6 2.50000E-01 5.00000E-02 5.00000E-02
 -1         7-2.50000E-01-5.00000E-02 5.00000E-02
 -1         8-2.50000E-01 5.00000E-02 5.00000E-02
 -1         9 0.00000E+00-5.00000E-02-5.00000E-02
 -1        10 0.00000E+00 5.00000E-02-5.00000E-02
 -1        11 0.00000E+00-5.00000E-02 5.00000E-02
 -1        12 0.00000E+00 5.00000E-02 5.00000E-02
 -3
    3C                             2                                     1
 -1         1    1    0    1
 -2         1         2         9        10         8         7        11        12
 -1         2    1    0    1
 -2        10         9         3         4        12        11         5         6
 -3
    1PSTEP                         1           1           1          
  100CL  101 1.000000000          12                     0    1           1
 -4  DISP        4    1
 -5  D1          1    2    1    0
 -5  D2          1    2    2    0
 -5  D3          1    2    3    0
 -5  ALL         1    2    0    0    1ALL
 -1         1 0.00000E+00 0.00000E+00 0.00000E+00
 -1         2 0.00000E+00 0.00000E+00 0.00000E+00
 -1         3-3.95854E-06-2.70265E-05-5.82627E-09
 -1         4 3.95854E-06-2.70265E-05 5.82627E-09
 -1         5-3.95854E-06-2.70265E-05 5.82627E-09
 -1         6 3.95854E-06-2.70265E-05-5.82627E-09
 -1         7 0.00000E+00 0.00000E+00 0.00000E+00
 -1         8 0.00000E+00 0.00000E+00 0.00000E+00
 -1         9-2.93840E-06-8.56506E-06-1.73814E-07
 -1        10 2.93840E-06-8.56506E-06 1.73814E-07
 -1        11-2.93840E-06-8.56506E-06 1.73814E-07
 -1        12 2.93840E-06-8.56506E-06-1.73814E-07
 -3
    1PSTEP                         2           1           1          
  100CL  101 1.000000000          12                     0    1           1
 -4  STRESS      6    1
 -5  SXX         1    4    1    1
 -5  SYY         1    4    2    2
 -5  SZZ         1    4    3    3
 -5  SXY         1    4    1    2
 -5  SYZ         1    4    2    3
 -5  SZX         1    4    3    1
 -1         1 3.15542E+06 1.22711E+06 1.22711E+06-2.81038E+06 1.01142E+00 5.70320E+04
 -1         2-3.15542E+06-1.22711E+06-1.22711E+06-2.81038E+06 1.01142E+00-5.70320E+04
 -1         3-1.08331E+06-4.13852E+05-3.94732E+05 4.36838E+05 9.55965E+03 5.51203E+04
 -1         4 1.08331E+06 4.13852E+05 3.94732E+05 4.36838E+05 9.55965E+03-5.51203E+04
 -1         5-1.08331E+06-4.13852E+05-3.94732E+05 4.36838E+05-9.55965E+03-5.51203E+04
 -1         6 1.08331E+06 4.13852E+05 3.94732E+05 4.36838E+05-9.55965E+03 5.51203E+04
 -1         7-3.15542E+06-1.22711E+06-1.22711E+06-2.81038E+06-1.01142E+00 5.70320E+04
 -1         8 3.15542E+06 1.22711E+06 1.22711E+06-2.81038E+06-1.01142E+00-5.70320E+04
 -1         9-1.76252E+06-4.63632E+05 1.06691E+05 3.86802E+05 2.85161E+05-9.55860E+02
 -1        10 1.76252E+06 4.63632E+05-1.06691E+05 3.86802E+05 2.85161E+05 9.55860E+02
 -1        11-1.76252E+06-4.63632E+05 1.06691E+05 3.86802E+05-2.85161E+05 9.55860E+02
 -1        12 1.76252E+06 4.63632E+05-1.06691E+05 3.86802E+05-2.85161E+05-9.55860E+02
 -3
    1PSTEP                         3           1           1          
  100CL  101 1.000000000          12                     0    1           1
 -4  TOSTRAIN    6    1
 -5  EXX         1    4    1    1
 -5  EYY         1    4    2    2
 -5  EZZ         1    4    3    3
 -5  EXY         1    4    1    2
 -5  EYZ         1    4    2    3
 -5  EZX         1    4    3    1
 -1         1 1.17535E-05-4.29683E-22-1.23297E-11-1.71299E-05 6.16483E-12 3.47624E-07
 -1         2-1.17535E-05-4.29683E-22 1.23297E-11-1.71299E-05 6.16483E-12-3.47624E-07
 -1         3-4.08050E-06 3.40632E-20 1.16537E-07 2.66263E-06 5.82683E-08 3.35971E-07
 -1         4 4.08050E-06 3.40632E-20-1.16537E-07 2.66263E-06 5.82683E-08-3.35971E-07
 -1         5-4.08050E-06-2.17063E-20 1.16537E-07 2.66263E-06-5.82683E-08-3.35971E-07
 -1         6 4.08050E-06-2.17063E-20-1.16537E-07 2.66263E-06-5.82683E-08 3.35971E-07
 -1         7-1.17535E-05 2.20683E-21 1.23297E-11-1.71299E-05-6.16483E-12 3.47624E-07
 -1         8 1.17535E-05 2.20683E-21-1.23297E-11-1.71299E-05-6.16483E-12-3.47624E-07
 -1         9-7.91702E-06-7.28348E-20 3.47625E-06 2.35765E-06 1.73813E-06-5.82620E-09
 -1        10 7.91702E-06-7.28348E-20-3.47625E-06 2.35765E-06 1.73813E-06 5.82620E-09
 -1        11-7.91702E-06 6.44973E-20 3.47625E-06 2.35765E-06-1.73813E-06 5.82620E-09
 -1        12 7.91702E-06 6.44973E-20-3.47625E-06 2.35765E-06-1.73813E-06-5.82620E-09
 -3
    1PSTEP                         4           1           1          
  100CL  101 1.000000000          12                     0    1           1
 -4  FORC        4    1
 -5  F1          1    2    1    0
 -5  F2          1    2    2    0
 -5  F3          1    2    3    0
 -5  ALL         1    2    0    0    1ALL
 -1         1-1.00000E+04 1.00000E+03-1.72621E+03
 -1         2 1.00000E+04 1.00000E+03 1.72621E+03
 -1         3 1.69038E-11-1.00000E+03 2.06057E-11
 -1         4 2.48690E-13-1.00000E+03 4.65050E-11
 -1         5 2.01084E-12-1.00000E+03-9.60654E-12
 -1         6 5.94547E-12-1.00000E+03-2.92459E-11
 -1         7 1.00000E+04 1.00000E+03-1.72621E+03
 -1         8-1.00000E+04 1.00000E+03 1.72621E+03
 -1         9 9.52305E-12-1.17112E-10 2.06271E-11
 -1        10 1.11720E-11-1.47526E-10 3.17932E-11
 -1        11-1.79110E-11-2.49472E-11 4.73221E-12
 -1        12-1.62541E-11 3.76854E-12 8.14282E-12
 -3
 9999
