    1C
    1UHash: v5AunGqV, Date: 01/25/2026, Unit system: M_KG_S_C           
    1UUSER                                                              
    1UDATE              25.january.2026                                 
    1UTIME              23:47:37                                        
    1UHOST                                                              
    1UPGM               CalculiX                                        
    1UVERSION           Version 2.23                             
    1UCOMPILETIME       Sun Jan 11 00:39:44 CET 2026                    
    1UDIR                                                               
    1UDBN                                                               
    1UMAT    1S235                                                      
    2C                           261                                     1
 -1         1-2.50000E-01 5.00000E-02-5.00000E-02
 -1         2-2.50000E-01-5.00000E-02-5.00000E-02
 -1         3 2.50000E-01-5.00000E-02-5.00000E-02
 -1         4 2.50000E-01 5.00000E-02-5.00000E-02
 -1         5 2.50000E-01-5.00000E-02 5.00000E-02
 -1         6 2.50000E-01 5.00000E-02 5.00000E-02
 -1         7-2.50000E-01-5.00000E-02 5.00000E-02
 -1         8-2.50000E-01 5.00000E-02 5.00000E-02
 -1         9-2.50000E-01-3.46945E-17-5.00000E-02
 -1        10-2.50000E-01 2.50000E-02-5.00000E-02
 -1        11-2.50000E-01-2.50000E-02-5.00000E-02
 -1        12-1.87500E-01-5.00000E-02-5.00000E-02
 -1        13-1.25000E-01-5.00000E-02-5.00000E-02
 -1        14-6.25000E-02-5.00000E-02-5.00000E-02
 -1        15 0.00000E+00-5.00000E-02-5.00000E-02
 -1        16 6.25000E-02-5.00000E-02-5.00000E-02
 -1        17 1.25000E-01-5.00000E-02-5.00000E-02
 -1        18 1.87500E-01-5.00000E-02-5.00000E-02
 -1        19-2.18750E-01-5.00000E-02-5.00000E-02
 -1        20-1.56250E-01-5.00000E-02-5.00000E-02
 -1        21-9.37500E-02-5.00000E-02-5.00000E-02
 -1        22-3.12500E-02-5.00000E-02-5.00000E-02
 -1        23 3.12500E-02-5.00000E-02-5.00000E-02
 -1        24 9.37500E-02-5.00000E-02-5.00000E-02
 -1        25 1.56250E-01-5.00000E-02-5.00000E-02
 -1        26 2.18750E-01-5.00000E-02-5.00000E-02
 -1        27 2.50000E-01-3.46945E-17-5.00000E-02
 -1        28 2.50000E-01 2.50000E-02-5.00000E-02
 -1        29 2.50000E-01-2.50000E-02-5.00000E-02
 -1        30-1.87500E-01 5.00000E-02-5.00000E-02
 -1        31-1.25000E-01 5.00000E-02-5.00000E-02
 -1        32-6.25000E-02 5.00000E-02-5.00000E-02
 -1        33 0.00000E+00 5.00000E-02-5.00000E-02
 -1        34 6.25000E-02 5.00000E-02-5.00000E-02
 -1        35 1.25000E-01 5.00000E-02-5.00000E-02
 -1        36 1.87500E-01 5.00000E-02-5.00000E-02
 -1        37-2.18750E-01 5.00000E-02-5.00000E-02
 -1        38-1.56250E-01 5.00000E-02-5.00000E-02
 -1        39-9.37500E-02 5.00000E-02-5.00000E-02
 -1        40-3.12500E-02 5.00000E-02-5.00000E-02
 -1        41 3.12500E-02 5.00000E-02-5.00000E-02
 -1        42 9.37500E-02 5.00000E-02-5.00000E-02
 -1        43 1.56250E-01 5.00000E-02-5.00000E-02
 -1        44 2.18750E-01 5.00000E-02-5.00000E-02
 -1        45 2.50000E-01-5.00000E-02 3.46945E-17
 -1        46 2.50000E-01-5.00000E-02-2.50000E-02
 -1        47 2.50000E-01-5.00000E-02 2.50000E-02
 -1        48 2.50000E-01-3.46945E-17 5.00000E-02
 -1        49 2.50000E-01 2.50000E-02 5.00000E-02
 -1        50 2.50000E-01-2.50000E-02 5.00000E-02
 -1        51 2.50000E-01 5.00000E-02 3.46945E-17
 -1        52 2.50000E-01 5.00000E-02-2.50000E-02
 -1        53 2.50000E-01 5.00000E-02 2.50000E-02
 -1        54 1.87500E-01-5.00000E-02 5.00000E-02
 -1        55 1.25000E-01-5.00000E-02 5.00000E-02
 -1        56 6.25000E-02-5.00000E-02 5.00000E-02
 -1        57 0.00000E+00-5.00000E-02 5.00000E-02
 -1        58-6.25000E-02-5.00000E-02 5.00000E-02
 -1        59-1.25000E-01-5.00000E-02 5.00000E-02
 -1        60-1.87500E-01-5.00000E-02 5.00000E-02
 -1        61 2.18750E-01-5.00000E-02 5.00000E-02
 -1        62 1.56250E-01-5.00000E-02 5.00000E-02
 -1        63 9.37500E-02-5.00000E-02 5.00000E-02
 -1        64 3.12500E-02-5.00000E-02 5.00000E-02
 -1        65-3.12500E-02-5.00000E-02 5.00000E-02
 -1        66-9.37500E-02-5.00000E-02 5.00000E-02
 -1        67-1.56250E-01-5.00000E-02 5.00000E-02
 -1        68-2.18750E-01-5.00000E-02 5.00000E-02
 -1        69-2.50000E-01-3.46945E-17 5.00000E-02
 -1        70-2.50000E-01 2.50000E-02 5.00000E-02
 -1        71-2.50000E-01-2.50000E-02 5.00000E-02
 -1        72 1.87500E-01 5.00000E-02 5.00000E-02
 -1        73 1.25000E-01 5.00000E-02 5.00000E-02
 -1        74 6.25000E-02 5.00000E-02 5.00000E-02
 -1        75 0.00000E+00 5.00000E-02 5.00000E-02
 -1        76-6.25000E-02 5.00000E-02 5.00000E-02
 -1        77-1.25000E-01 5.00000E-02 5.00000E-02
 -1        78-1.87500E-01 5.00000E-02 5.00000E-02
 -1        79 2.18750E-01 5.00000E-02 5.00000E-02
 -1        80 1.56250E-01 5.00000E-02 5.00000E-02
 -1        81 9.37500E-02 5.00000E-02 5.00000E-02
 -1        82 3.12500E-02 5.00000E-02 5.00000E-02
 -1        83-3.12500E-02 5.00000E-02 5.00000E-02
 -1        84-9.37500E-02 5.00000E-02 5.00000E-02
 -1        85-1.56250E-01 5.00000E-02 5.00000E-02
 -1        86-2.18750E-01 5.00000E-02 5.00000E-02
 -1        87-2.50000E-01-5.00000E-02-3.46945E-17
 -1        88-2.50000E-01-5.00000E-02 2.50000E-02
 -1        89-2.50000E-01-5.00000E-02-2.50000E-02
 -1        90-2.50000E-01 5.00000E-02-3.46945E-17
 -1        91-2.50000E-01 5.00000E-02 2.50000E-02
 -1        92-2.50000E-01 5.00000E-02-2.50000E-02
 -1        93-1.87500E-01-3.46945E-17-5.00000E-02
 -1        94-1.25000E-01-3.46945E-17-5.00000E-02
 -1        95-6.25000E-02-4.16334E-17-5.00000E-02
 -1        96 0.00000E+00-3.46945E-17-5.00000E-02
 -1        97 6.25000E-02-2.77556E-17-5.00000E-02
 -1        98 1.25000E-01-2.08167E-17-5.00000E-02
 -1        99 1.87500E-01-3.46945E-17-5.00000E-02
 -1       100-1.87500E-01 2.50000E-02-5.00000E-02
 -1       101-2.18750E-01-3.46945E-17-5.00000E-02
 -1       102-1.25000E-01 2.50000E-02-5.00000E-02
 -1       103-1.56250E-01-3.46945E-17-5.00000E-02
 -1       104-6.25000E-02 2.50000E-02-5.00000E-02
 -1       105-9.37500E-02-3.81639E-17-5.00000E-02
 -1       106 0.00000E+00 2.50000E-02-5.00000E-02
 -1       107-3.12500E-02-3.81639E-17-5.00000E-02
 -1       108 6.25000E-02 2.50000E-02-5.00000E-02
 -1       109 3.12500E-02-3.12250E-17-5.00000E-02
 -1       110 1.25000E-01 2.50000E-02-5.00000E-02
 -1       111 9.37500E-02-2.42861E-17-5.00000E-02
 -1       112 1.87500E-01 2.50000E-02-5.00000E-02
 -1       113 1.56250E-01-2.77556E-17-5.00000E-02
 -1       114 2.18750E-01-3.46945E-17-5.00000E-02
 -1       115-1.87500E-01-2.50000E-02-5.00000E-02
 -1       116-1.25000E-01-2.50000E-02-5.00000E-02
 -1       117-6.25000E-02-2.50000E-02-5.00000E-02
 -1       118 0.00000E+00-2.50000E-02-5.00000E-02
 -1       119 6.25000E-02-2.50000E-02-5.00000E-02
 -1       120 1.25000E-01-2.50000E-02-5.00000E-02
 -1       121 1.87500E-01-2.50000E-02-5.00000E-02
 -1       122 2.50000E-01-4.85723E-17 4.16334E-17
 -1       123 2.50000E-01 2.50000E-02 3.81639E-17
 -1       124 2.50000E-01-4.16334E-17-2.50000E-02
 -1       125 2.50000E-01-4.16334E-17 2.50000E-02
 -1       126 2.50000E-01-2.50000E-02 3.81639E-17
 -1       127 1.87500E-01-3.46945E-17 5.00000E-02
 -1       128 1.25000E-01-3.46945E-17 5.00000E-02
 -1       129 6.25000E-02-4.16334E-17 5.00000E-02
 -1       130 0.00000E+00-3.46945E-17 5.00000E-02
 -1       131-6.25000E-02-2.77556E-17 5.00000E-02
 -1       132-1.25000E-01-2.08167E-17 5.00000E-02
 -1       133-1.87500E-01-3.46945E-17 5.00000E-02
 -1       134 1.87500E-01 2.50000E-02 5.00000E-02
 -1       135 2.18750E-01-3.46945E-17 5.00000E-02
 -1       136 1.25000E-01 2.50000E-02 5.00000E-02
 -1       137 1.56250E-01-3.46945E-17 5.00000E-02
 -1       138 6.25000E-02 2.50000E-02 5.00000E-02
 -1       139 9.37500E-02-3.81639E-17 5.00000E-02
 -1       140 0.00000E+00 2.50000E-02 5.00000E-02
 -1       141 3.12500E-02-3.81639E-17 5.00000E-02
 -1       142-6.25000E-02 2.50000E-02 5.00000E-02
 -1       143-3.12500E-02-3.12250E-17 5.00000E-02
 -1       144-1.25000E-01 2.50000E-02 5.00000E-02
 -1       145-9.37500E-02-2.42861E-17 5.00000E-02
 -1       146-1.87500E-01 2.50000E-02 5.00000E-02
 -1       147-1.56250E-01-2.77556E-17 5.00000E-02
 -1       148-2.18750E-01-3.46945E-17 5.00000E-02
 -1       149 1.87500E-01-2.50000E-02 5.00000E-02
 -1       150 1.25000E-01-2.50000E-02 5.00000E-02
 -1       151 6.25000E-02-2.50000E-02 5.00000E-02
 -1       152 0.00000E+00-2.50000E-02 5.00000E-02
 -1       153-6.25000E-02-2.50000E-02 5.00000E-02
 -1       154-1.25000E-01-2.50000E-02 5.00000E-02
 -1       155-1.87500E-01-2.50000E-02 5.00000E-02
 -1       156-2.50000E-01-2.08167E-17-3.46945E-17
 -1       157-2.50000E-01 2.50000E-02-3.46945E-17
 -1       158-2.50000E-01-2.77556E-17 2.50000E-02
 -1       159-2.50000E-01-2.77556E-17-2.50000E-02
 -1       160-2.50000E-01-2.50000E-02-3.46945E-17
 -1       161-1.87500E-01 5.00000E-02-2.60209E-17
 -1       162-1.25000E-01 5.00000E-02-1.73472E-17
 -1       163-6.25000E-02 5.00000E-02-8.67362E-18
 -1       164-1.00000E-17 5.00000E-02 0.00000E+00
 -1       165 6.25000E-02 5.00000E-02 8.67362E-18
 -1       166 1.25000E-01 5.00000E-02 1.73472E-17
 -1       167 1.87500E-01 5.00000E-02 2.60209E-17
 -1       168-1.87500E-01 5.00000E-02 2.50000E-02
 -1       169-2.18750E-01 5.00000E-02-3.03577E-17
 -1       170-1.25000E-01 5.00000E-02 2.50000E-02
 -1       171-1.56250E-01 5.00000E-02-2.16840E-17
 -1       172-6.25000E-02 5.00000E-02 2.50000E-02
 -1       173-9.37500E-02 5.00000E-02-1.30104E-17
 -1       174-5.00000E-18 5.00000E-02 2.50000E-02
 -1       175-3.12500E-02 5.00000E-02-4.33681E-18
 -1       176 6.25000E-02 5.00000E-02 2.50000E-02
 -1       177 3.12500E-02 5.00000E-02 4.33681E-18
 -1       178 1.25000E-01 5.00000E-02 2.50000E-02
 -1       179 9.37500E-02 5.00000E-02 1.30104E-17
 -1       180 1.87500E-01 5.00000E-02 2.50000E-02
 -1       181 1.56250E-01 5.00000E-02 2.16840E-17
 -1       182 2.18750E-01 5.00000E-02 3.03577E-17
 -1       183-1.87500E-01 5.00000E-02-2.50000E-02
 -1       184-1.25000E-01 5.00000E-02-2.50000E-02
 -1       185-6.25000E-02 5.00000E-02-2.50000E-02
 -1       186-5.00000E-18 5.00000E-02-2.50000E-02
 -1       187 6.25000E-02 5.00000E-02-2.50000E-02
 -1       188 1.25000E-01 5.00000E-02-2.50000E-02
 -1       189 1.87500E-01 5.00000E-02-2.50000E-02
 -1       190-1.87500E-01-5.00000E-02-2.60209E-17
 -1       191-1.25000E-01-5.00000E-02-1.73472E-17
 -1       192-6.25000E-02-5.00000E-02-8.67362E-18
 -1       193-1.00000E-17-5.00000E-02 0.00000E+00
 -1       194 6.25000E-02-5.00000E-02 8.67362E-18
 -1       195 1.25000E-01-5.00000E-02 1.73472E-17
 -1       196 1.87500E-01-5.00000E-02 2.60209E-17
 -1       197-2.18750E-01-5.00000E-02-3.03577E-17
 -1       198-1.87500E-01-5.00000E-02 2.50000E-02
 -1       199-1.56250E-01-5.00000E-02-2.16840E-17
 -1       200-1.25000E-01-5.00000E-02 2.50000E-02
 -1       201-9.37500E-02-5.00000E-02-1.30104E-17
 -1       202-6.25000E-02-5.00000E-02 2.50000E-02
 -1       203-3.12500E-02-5.00000E-02-4.33681E-18
 -1       204-5.00000E-18-5.00000E-02 2.50000E-02
 -1       205 3.12500E-02-5.00000E-02 4.33681E-18
 -1       206 6.25000E-02-5.00000E-02 2.50000E-02
 -1       207 9.37500E-02-5.00000E-02 1.30104E-17
 -1       208 1.25000E-01-5.00000E-02 2.50000E-02
 -1       209 1.56250E-01-5.00000E-02 2.16840E-17
 -1       210 1.87500E-01-5.00000E-02 2.50000E-02
 -1       211 2.18750E-01-5.00000E-02 3.03577E-17
 -1       212-1.87500E-01-5.00000E-02-2.50000E-02
 -1       213-1.25000E-01-5.00000E-02-2.50000E-02
 -1       214-6.25000E-02-5.00000E-02-2.50000E-02
 -1       215-5.00000E-18-5.00000E-02-2.50000E-02
 -1       216 6.25000E-02-5.00000E-02-2.50000E-02
 -1       217 1.25000E-01-5.00000E-02-2.50000E-02
 -1       218 1.87500E-01-5.00000E-02-2.50000E-02
 -1       219-1.87500E-01-3.16587E-17-2.21177E-17
 -1       220-1.25000E-01-3.03577E-17-1.82146E-17
 -1       221-6.25000E-02-3.72966E-17-1.04083E-17
 -1       222 0.00000E+00-3.46945E-17 3.46945E-18
 -1       223 6.25000E-02-3.64292E-17 1.04083E-17
 -1       224 1.25000E-01-3.29597E-17 1.38778E-17
 -1       225 1.87500E-01-3.12250E-17 3.46945E-17
 -1       226-1.87500E-01-3.31766E-17-2.50000E-02
 -1       227-2.18750E-01-2.62377E-17-2.84061E-17
 -1       228-1.87500E-01 2.50000E-02-2.40693E-17
 -1       229-1.87500E-01-3.31766E-17 2.50000E-02
 -1       230-1.25000E-01-3.25261E-17-2.50000E-02
 -1       231-1.56250E-01-3.10082E-17-2.01662E-17
 -1       232-1.25000E-01 2.50000E-02-1.77809E-17
 -1       233-1.25000E-01-2.55872E-17 2.50000E-02
 -1       234-6.25000E-02-3.94650E-17-2.50000E-02
 -1       235-9.37500E-02-3.38271E-17-1.43115E-17
 -1       236-6.25000E-02 2.50000E-02-9.54098E-18
 -1       237-6.25000E-02-3.25261E-17 2.50000E-02
 -1       238 0.00000E+00-3.46945E-17-2.50000E-02
 -1       239-3.12500E-02-3.59955E-17-3.46945E-18
 -1       240-5.00000E-18 2.50000E-02 1.73472E-18
 -1       241 0.00000E+00-3.46945E-17 2.50000E-02
 -1       242 6.25000E-02-3.20924E-17-2.50000E-02
 -1       243 3.12500E-02-3.55618E-17 6.93889E-18
 -1       244 6.25000E-02 2.50000E-02 9.54098E-18
 -1       245 6.25000E-02-3.90313E-17 2.50000E-02
 -1       246 1.25000E-01-2.68882E-17-2.50000E-02
 -1       247 9.37500E-02-3.46945E-17 1.21431E-17
 -1       248 1.25000E-01 2.50000E-02 1.56125E-17
 -1       249 1.25000E-01-3.38271E-17 2.50000E-02
 -1       250 1.87500E-01-3.29597E-17-2.50000E-02
 -1       251 1.56250E-01-3.20924E-17 2.42861E-17
 -1       252 1.87500E-01 2.50000E-02 3.03577E-17
 -1       253 1.87500E-01-3.29597E-17 2.50000E-02
 -1       254 2.18750E-01-3.98986E-17 3.81639E-17
 -1       255-1.87500E-01-2.50000E-02-2.40693E-17
 -1       256-1.25000E-01-2.50000E-02-1.77809E-17
 -1       257-6.25000E-02-2.50000E-02-9.54098E-18
 -1       258-5.00000E-18-2.50000E-02 1.73472E-18
 -1       259 6.25000E-02-2.50000E-02 9.54098E-18
 -1       260 1.25000E-01-2.50000E-02 1.56125E-17
 -1       261 1.87500E-01-2.50000E-02 3.03577E-17
 -3
    3C                            32                                     1
 -1         1    4    0    1
 -2         1         9        93        30        90       156       219       161        10       101
 -2       100        37        92       159       226       183       157       227       228       169
 -1         2    4    0    1
 -2        90       156       219       161         8        69       133        78       157       227
 -2       228       169        91       158       229       168        70       148       146        86
 -1         3    4    0    1
 -2        30        93        94        31       161       219       220       162       100       103
 -2       102        38       183       226       230       184       228       231       232       171
 -1         4    4    0    1
 -2       161       219       220       162        78       133       132        77       228       231
 -2       232       171       168       229       233       170       146       147       144        85
 -1         5    4    0    1
 -2        31        94        95        32       162       220       221       163       102       105
 -2       104        39       184       230       234       185       232       235       236       173
 -1         6    4    0    1
 -2       162       220       221       163        77       132       131        76       232       235
 -2       236       173       170       233       237       172       144       145       142        84
 -1         7    4    0    1
 -2        32        95        96        33       163       221       222       164       104       107
 -2       106        40       185       234       238       186       236       239       240       175
 -1         8    4    0    1
 -2       163       221       222       164        76       131       130        75       236       239
 -2       240       175       172       237       241       174       142       143       140        83
 -1         9    4    0    1
 -2        33        96        97        34       164       222       223       165       106       109
 -2       108        41       186       238       242       187       240       243       244       177
 -1        10    4    0    1
 -2       164       222       223       165        75       130       129        74       240       243
 -2       244       177       174       241       245       176       140       141       138        82
 -1        11    4    0    1
 -2        34        97        98        35       165       223       224       166       108       111
 -2       110        42       187       242       246       188       244       247       248       179
 -1        12    4    0    1
 -2       165       223       224       166        74       129       128        73       244       247
 -2       248       179       176       245       249       178       138       139       136        81
 -1        13    4    0    1
 -2        35        98        99        36       166       224       225       167       110       113
 -2       112        43       188       246       250       189       248       251       252       181
 -1        14    4    0    1
 -2       166       224       225       167        73       128       127        72       248       251
 -2       252       181       178       249       253       180       136       137       134        80
 -1        15    4    0    1
 -2        36        99        27         4       167       225       122        51       112       114
 -2        28        44       189       250       124        52       252       254       123       182
 -1        16    4    0    1
 -2       167       225       122        51        72       127        48         6       252       254
 -2       123       182       180       253       125        53       134       135        49        79
 -1        17    4    0    1
 -2         9         2        12        93       156        87       190       219        11        19
 -2       115       101       159        89       212       226       160       197       255       227
 -1        18    4    0    1
 -2       156        87       190       219        69         7        60       133       160       197
 -2       255       227       158        88       198       229        71        68       155       148
 -1        19    4    0    1
 -2        93        12        13        94       219       190       191       220       115        20
 -2       116       103       226       212       213       230       255       199       256       231
 -1        20    4    0    1
 -2       219       190       191       220       133        60        59       132       255       199
 -2       256       231       229       198       200       233       155        67       154       147
 -1        21    4    0    1
 -2        94        13        14        95       220       191       192       221       116        21
 -2       117       105       230       213       214       234       256       201       257       235
 -1        22    4    0    1
 -2       220       191       192       221       132        59        58       131       256       201
 -2       257       235       233       200       202       237       154        66       153       145
 -1        23    4    0    1
 -2        95        14        15        96       221       192       193       222       117        22
 -2       118       107       234       214       215       238       257       203       258       239
 -1        24    4    0    1
 -2       221       192       193       222       131        58        57       130       257       203
 -2       258       239       237       202       204       241       153        65       152       143
 -1        25    4    0    1
 -2        96        15        16        97       222       193       194       223       118        23
 -2       119       109       238       215       216       242       258       205       259       243
 -1        26    4    0    1
 -2       222       193       194       223       130        57        56       129       258       205
 -2       259       243       241       204       206       245       152        64       151       141
 -1        27    4    0    1
 -2        97        16        17        98       223       194       195       224       119        24
 -2       120       111       242       216       217       246       259       207       260       247
 -1        28    4    0    1
 -2       223       194       195       224       129        56        55       128       259       207
 -2       260       247       245       206       208       249       151        63       150       139
 -1        29    4    0    1
 -2        98        17        18        99       224       195       196       225       120        25
 -2       121       113       246       217       218       250       260       209       261       251
 -1        30    4    0    1
 -2       224       195       196       225       128        55        54       127       260       209
 -2       261       251       249       208       210       253       150        62       149       137
 -1        31    4    0    1
 -2        99        18         3        27       225       196        45       122       121        26
 -2        29       114       250       218        46       124       261       211       126       254
 -1        32    4    0    1
 -2       225       196        45       122       127        54         5        48       261       211
 -2       126       254       253       210        47       125       149        61        50       135
 -3
    1PSTEP                         1           1           1          
  100CL  101 1.000000000         261                     0    1           1
 -4  DISP        4    1
 -5  D1          1    2    1    0
 -5  D2          1    2    2    0
 -5  D3          1    2    3    0
 -5  ALL         1    2    0    0    1ALL
 -1         1 0.00000E+00 0.00000E+00 0.00000E+00
 -1         2 0.00000E+00 0.00000E+00 0.00000E+00
 -1         3-3.53293E-06-2.40599E-05 1.17550E-08
 -1         4 3.53563E-06-2.40599E-05 1.38276E-08
 -1         5-3.53570E-06-2.40598E-05 1.39301E-08
 -1         6 3.53283E-06-2.40598E-05 1.16830E-08
 -1         7 0.00000E+00 0.00000E+00 0.00000E+00
 -1         8 0.00000E+00 0.00000E+00 0.00000E+00
 -1         9 0.00000E+00 0.00000E+00 0.00000E+00
 -1        10 0.00000E+00 0.00000E+00 0.00000E+00
 -1        11 0.00000E+00 0.00000E+00 0.00000E+00
 -1        12-8.01077E-07-5.69563E-07-1.65928E-07
 -1        13-1.52214E-06-2.10969E-06-1.48320E-07
 -1        14-2.13392E-06-4.48962E-06-1.21393E-07
 -1        15-2.63646E-06-7.56498E-06-9.46382E-08
 -1        16-3.02697E-06-1.11990E-05-6.76008E-08
 -1        17-3.30614E-06-1.52513E-05-4.06401E-08
 -1        18-3.47372E-06-1.95827E-05-1.40640E-08
 -1        19-4.00864E-07-1.77190E-07-1.52745E-07
 -1        20-1.17536E-06-1.22799E-06-1.60472E-07
 -1        21-1.84085E-06-3.20428E-06-1.34947E-07
 -1        22-2.39896E-06-5.94873E-06-1.08034E-07
 -1        23-2.84527E-06-9.32099E-06-8.11249E-08
 -1        24-3.18019E-06-1.31815E-05-5.41119E-08
 -1        25-3.40346E-06-1.73908E-05-2.72167E-08
 -1        26-3.51587E-06-2.18081E-05-1.78044E-09
 -1        27 1.32214E-09-2.40457E-05 1.27806E-08
 -1        28 1.75435E-06-2.40524E-05 1.15396E-08
 -1        29-1.75167E-06-2.40524E-05 1.40431E-08
 -1        30 8.02435E-07-5.69816E-07 1.67055E-07
 -1        31 1.52451E-06-2.10987E-06 1.51978E-07
 -1        32 2.13680E-06-4.48968E-06 1.28487E-07
 -1        33 2.63960E-06-7.56503E-06 1.05456E-07
 -1        34 3.03006E-06-1.11990E-05 8.23185E-08
 -1        35 3.30907E-06-1.52513E-05 5.92246E-08
 -1        36 3.47646E-06-1.95827E-05 3.62441E-08
 -1        37 4.01582E-07-1.77441E-07 1.53138E-07
 -1        38 1.17725E-06-1.22822E-06 1.62719E-07
 -1        39 1.84356E-06-3.20439E-06 1.40251E-07
 -1        40 2.40198E-06-5.94878E-06 1.16962E-07
 -1        41 2.84843E-06-9.32099E-06 9.38794E-08
 -1        42 3.18320E-06-1.31815E-05 7.07783E-08
 -1        43 3.40630E-06-1.73908E-05 4.76285E-08
 -1        44 3.51858E-06-2.18081E-05 2.56630E-08
 -1        45-3.54123E-06-2.40650E-05 1.28473E-08
 -1        46-3.53966E-06-2.40634E-05 1.16337E-08
 -1        47-3.54105E-06-2.40633E-05 1.40477E-08
 -1        48-1.42798E-09-2.40457E-05 1.27950E-08
 -1        49 1.75159E-06-2.40523E-05 1.40017E-08
 -1        50-1.75444E-06-2.40523E-05 1.16107E-08
 -1        51 3.54115E-06-2.40650E-05 1.27615E-08
 -1        52 3.54098E-06-2.40634E-05 1.39626E-08
 -1        53 3.53956E-06-2.40633E-05 1.15621E-08
 -1        54-3.47651E-06-1.95826E-05 3.63558E-08
 -1        55-3.30911E-06-1.52512E-05 5.93495E-08
 -1        56-3.03001E-06-1.11989E-05 8.24201E-08
 -1        57-2.63944E-06-7.56506E-06 1.05447E-07
 -1        58-2.13667E-06-4.48980E-06 1.28367E-07
 -1        59-1.52439E-06-2.11003E-06 1.51825E-07
 -1        60-8.02406E-07-5.69926E-07 1.66916E-07
 -1        61-3.51863E-06-2.18080E-05 2.57681E-08
 -1        62-3.40634E-06-1.73907E-05 4.77646E-08
 -1        63-3.18320E-06-1.31814E-05 7.08916E-08
 -1        64-2.84834E-06-9.32096E-06 9.39293E-08
 -1        65-2.40180E-06-5.94885E-06 1.16892E-07
 -1        66-1.84343E-06-3.20454E-06 1.40105E-07
 -1        67-1.17718E-06-1.22835E-06 1.62571E-07
 -1        68-4.01572E-07-1.77489E-07 1.53061E-07
 -1        69 0.00000E+00 0.00000E+00 0.00000E+00
 -1        70 0.00000E+00 0.00000E+00 0.00000E+00
 -1        71 0.00000E+00 0.00000E+00 0.00000E+00
 -1        72 3.47362E-06-1.95826E-05-1.41857E-08
 -1        73 3.30614E-06-1.52512E-05-4.07645E-08
 -1        74 3.02701E-06-1.11989E-05-6.76742E-08
 -1        75 2.63664E-06-7.56500E-06-9.46192E-08
 -1        76 2.13404E-06-4.48973E-06-1.21280E-07
 -1        77 1.52225E-06-2.10985E-06-1.48177E-07
 -1        78 8.01155E-07-5.69685E-07-1.65840E-07
 -1        79 3.51576E-06-2.18080E-05-1.86242E-09
 -1        80 3.40340E-06-1.73907E-05-2.73624E-08
 -1        81 3.18021E-06-1.31814E-05-5.42068E-08
 -1        82 2.84541E-06-9.32093E-06-8.11450E-08
 -1        83 2.39909E-06-5.94881E-06-1.07954E-07
 -1        84 1.84100E-06-3.20442E-06-1.34814E-07
 -1        85 1.17543E-06-1.22815E-06-1.60343E-07
 -1        86 4.00926E-07-1.77253E-07-1.52704E-07
 -1        87 0.00000E+00 0.00000E+00 0.00000E+00
 -1        88 0.00000E+00 0.00000E+00 0.00000E+00
 -1        89 0.00000E+00 0.00000E+00 0.00000E+00
 -1        90 0.00000E+00 0.00000E+00 0.00000E+00
 -1        91 0.00000E+00 0.00000E+00 0.00000E+00
 -1        92 0.00000E+00 0.00000E+00 0.00000E+00
 -1        93 6.93786E-10-4.93408E-07 6.19261E-10
 -1        94 1.18764E-09-2.03605E-06 1.86484E-09
 -1        95 1.44364E-09-4.42701E-06 3.56286E-09
 -1        96 1.57359E-09-7.51507E-06 5.42197E-09
 -1        97 1.54869E-09-1.11615E-05 7.36024E-09
 -1        98 1.47678E-09-1.52262E-05 9.29375E-09
 -1        99 1.35788E-09-1.95695E-05 1.10820E-08
 -1       100 3.91905E-07-5.03248E-07 8.46855E-08
 -1       101 3.47468E-10-8.02999E-08 2.41590E-10
 -1       102 7.50924E-07-2.05596E-06 7.69294E-08
 -1       103 9.58200E-10-1.14708E-06 1.17546E-09
 -1       104 1.05823E-06-4.44227E-06 6.60691E-08
 -1       105 1.35773E-09-3.13539E-06 2.67778E-09
 -1       106 1.30939E-06-7.52766E-06 5.54225E-08
 -1       107 1.50806E-09-5.89254E-06 4.47772E-09
 -1       108 1.50471E-06-1.11708E-05 4.48509E-08
 -1       109 1.58907E-09-9.27724E-06 6.38356E-09
 -1       110 1.64412E-06-1.52325E-05 3.42317E-08
 -1       111 1.51137E-09-1.31503E-05 8.32728E-09
 -1       112 1.72795E-06-1.95730E-05 2.37374E-08
 -1       113 1.42308E-09-1.73720E-05 1.02018E-08
 -1       114 1.32839E-09-2.18036E-05 1.19369E-08
 -1       115-3.90532E-07-5.03127E-07-8.34633E-08
 -1       116-7.48565E-07-2.05587E-06-7.32156E-08
 -1       117-1.05534E-06-4.44224E-06-5.89566E-08
 -1       118-1.30627E-06-7.52764E-06-4.45914E-08
 -1       119-1.50160E-06-1.11708E-05-3.01264E-08
 -1       120-1.64118E-06-1.52325E-05-1.56711E-08
 -1       121-1.72522E-06-1.95731E-05-1.57163E-09
 -1       122-3.84547E-11-2.40509E-05 1.28010E-08
 -1       123 1.75800E-06-2.40576E-05 1.27840E-08
 -1       124 6.52865E-10-2.40482E-05 1.27881E-08
 -1       125-7.29651E-10-2.40482E-05 1.28030E-08
 -1       126-1.75808E-06-2.40576E-05 1.28195E-08
 -1       127-1.44751E-09-1.95694E-05 1.10945E-08
 -1       128-1.47627E-09-1.52261E-05 9.27825E-09
 -1       129-1.50139E-09-1.11614E-05 7.37096E-09
 -1       130-1.41282E-09-7.51508E-06 5.42532E-09
 -1       131-1.31704E-09-4.42712E-06 3.56701E-09
 -1       132-1.06507E-09-2.03620E-06 1.87405E-09
 -1       133-6.34458E-10-4.93525E-07 6.04060E-10
 -1       134 1.72514E-06-1.95729E-05-1.63447E-09
 -1       135-1.43358E-09-2.18036E-05 1.19476E-08
 -1       136 1.64116E-06-1.52324E-05-1.57233E-08
 -1       137-1.45569E-09-1.73719E-05 1.01989E-08
 -1       138 1.50167E-06-1.11707E-05-3.01578E-08
 -1       139-1.48324E-09-1.31502E-05 8.33503E-09
 -1       140 1.30642E-06-7.52765E-06-4.45754E-08
 -1       141-1.47831E-09-9.27720E-06 6.40052E-09
 -1       142 1.05549E-06-4.44236E-06-5.89023E-08
 -1       143-1.35135E-09-5.89261E-06 4.47311E-09
 -1       144 7.48673E-07-2.05603E-06-7.31429E-08
 -1       145-1.22860E-09-3.13552E-06 2.67797E-09
 -1       146 3.90582E-07-5.03248E-07-8.34257E-08
 -1       147-8.64951E-10-1.14723E-06 1.16874E-09
 -1       148-3.20806E-10-8.03627E-08 2.28823E-10
 -1       149-1.72802E-06-1.95729E-05 2.37981E-08
 -1       150-1.64413E-06-1.52324E-05 3.42885E-08
 -1       151-1.50466E-06-1.11707E-05 4.49060E-08
 -1       152-1.30927E-06-7.52768E-06 5.54195E-08
 -1       153-1.05811E-06-4.44239E-06 6.60159E-08
 -1       154-7.50819E-07-2.05612E-06 7.68522E-08
 -1       155-3.91839E-07-5.03363E-07 8.46128E-08
 -1       156 0.00000E+00 0.00000E+00 0.00000E+00
 -1       157 0.00000E+00 0.00000E+00 0.00000E+00
 -1       158 0.00000E+00 0.00000E+00 0.00000E+00
 -1       159 0.00000E+00 0.00000E+00 0.00000E+00
 -1       160 0.00000E+00 0.00000E+00 0.00000E+00
 -1       161 8.05767E-07-6.53671E-07 5.53803E-10