    1C
    1UHash: v5AunGqV, Date: 01/14/2026, Unit system: M_KG_S_C           
    1UUSER                                                              
    1UDATE              17.january.2026                                 
    1UTIME              12:54:31                                        
    1UHOST                                                              
    1UPGM               CalculiX                                        
    1UVERSION           Version 2.23                             
    1UCOMPILETIME       Sun Jan 11 00:39:44 CET 2026                    
    1UDIR                                                               
    1UDBN                                                               
    1UMAT    1S235                                                      
    2C                            32                                     1
 -1         1-2.50000E-01 5.00000E-02-5.00000E-02
 -1         2-2.50000E-01-5.00000E-02-5.00000E-02
 -1         3 2.50000E-01-5.00000E-02-5.00000E-02
 -1         4 2.50000E-01 5.00000E-02-5.00000E-02
 -1         5 2.50000E-01-5.00000E-02 5.00000E-02
 -1         6 2.50000E-01 5.00000E-02 5.00000E-02
 -1         7-2.50000E-01-5.00000E-02 5.00000E-02
 -1         8-2.50000E-01 5.00000E-02 5.00000E-02
 -1         9-2.50000E-01 0.00000E+00-5.00000E-02
 -1        10 0.00000E+00-5.00000E-02-5.00000E-02
 -1        11-1.25000E-01-5.00000E-02-5.00000E-02
 -1        12 1.25000E-01-5.00000E-02-5.00000E-02
 -1        13 2.50000E-01 0.00000E+00-5.00000E-02
 -1        14 0.00000E+00 5.00000E-02-5.00000E-02
 -1        15-1.25000E-01 5.00000E-02-5.00000E-02
 -1        16 1.25000E-01 5.00000E-02-5.00000E-02
 -1        17 2.50000E-01-5.00000E-02 0.00000E+00
 -1        18 2.50000E-01 0.00000E+00 5.00000E-02
 -1        19 2.50000E-01 5.00000E-02 0.00000E+00
 -1        20 0.00000E+00-5.00000E-02 5.00000E-02
 -1        21 1.25000E-01-5.00000E-02 5.00000E-02
 -1        22-1.25000E-01-5.00000E-02 5.00000E-02
 -1        23-2.50000E-01 0.00000E+00 5.00000E-02
 -1        24 0.00000E+00 5.00000E-02 5.00000E-02
 -1        25 1.25000E-01 5.00000E-02 5.00000E-02
 -1        26-1.25000E-01 5.00000E-02 5.00000E-02
 -1        27-2.50000E-01-5.00000E-02 0.00000E+00
 -1        28-2.50000E-01 5.00000E-02 0.00000E+00
 -1        29 0.00000E+00 0.00000E+00-5.00000E-02
 -1        30 0.00000E+00 0.00000E+00 5.00000E-02
 -1        31 0.00000E+00 5.00000E-02 0.00000E+00
 -1        32 0.00000E+00-5.00000E-02 0.00000E+00
 -3
    3C                             2                                     1
 -1         1    4    0    1
 -2         1         2        10        14         8         7        20        24         9        11
 -2        29        15        28        27        32        31        23        22        30        26
 -1         2    4    0    1
 -2        14        10         3         4        24        20         5         6        29        12
 -2        13        16        31        32        17        19        30        21        18        25
 -3
    1PSTEP                         1           1           1          
  100CL  101 1.000000000          32                     0    1           1
 -4  DISP        4    1
 -5  D1          1    2    1    0
 -5  D2          1    2    2    0
 -5  D3          1    2    3    0
 -5  ALL         1    2    0    0    1ALL
 -1         1 0.00000E+00 0.00000E+00 0.00000E+00
 -1         2 0.00000E+00 0.00000E+00 0.00000E+00
 -1         3-3.40834E-06-2.23795E-05-1.64187E-08
 -1         4 3.40836E-06-2.23795E-05 1.65203E-08
 -1         5-3.40835E-06-2.23795E-05 1.65557E-08
 -1         6 3.40834E-06-2.23795E-05-1.64554E-08
 -1         7 0.00000E+00 0.00000E+00 0.00000E+00
 -1         8 0.00000E+00 0.00000E+00 0.00000E+00
 -1         9 0.00000E+00 0.00000E+00 0.00000E+00
 -1        10-2.47574E-06-6.79734E-06-7.61088E-08
 -1        11-1.32411E-06-1.84769E-06-1.65062E-07
 -1        12-3.10850E-06-1.40091E-05-5.15453E-08
 -1        13 9.95589E-12-2.23878E-05 5.12680E-11
 -1        14 2.47574E-06-6.79734E-06 7.61433E-08
 -1        15 1.32411E-06-1.84769E-06 1.65085E-07
 -1        16 3.10851E-06-1.40091E-05 5.16063E-08
 -1        17-3.40848E-06-2.23731E-05 6.79925E-11
 -1        18-3.30930E-12-2.23878E-05 4.99094E-11
 -1        19 3.40848E-06-2.23731E-05 3.27481E-11
 -1        20-2.47574E-06-6.79731E-06 7.61702E-08
 -1        21-3.10851E-06-1.40091E-05 5.16421E-08
 -1        22-1.32411E-06-1.84768E-06 1.65097E-07
 -1        23 0.00000E+00 0.00000E+00 0.00000E+00
 -1        24 2.47574E-06-6.79731E-06-7.61338E-08
 -1        25 3.10850E-06-1.40091E-05-5.15795E-08
 -1        26 1.32412E-06-1.84768E-06-1.65075E-07
 -1        27 0.00000E+00 0.00000E+00 0.00000E+00
 -1        28 0.00000E+00 0.00000E+00 0.00000E+00
 -1        29 6.26225E-12-6.72140E-06 1.70767E-11
 -1        30-1.68852E-12-6.72137E-06 1.74913E-11
 -1        31 2.48448E-06-6.87149E-06 4.07625E-12
 -1        32-2.48447E-06-6.87149E-06 3.05578E-11
 -3
    1PSTEP                         2           1           1          
  100CL  101 1.000000000          32                     0    1           1
 -4  STRESS      6    1
 -5  SXX         1    4    1    1
 -5  SYY         1    4    2    2
 -5  SZZ         1    4    3    3
 -5  SXY         1    4    1    2
 -5  SYZ         1    4    2    3
 -5  SZX         1    4    3    1
 -1         1 3.02906E+06 1.17797E+06 1.17797E+06-1.94715E+05 8.64709E-01 1.91690E+05
 -1         2-3.02905E+06-1.17796E+06-1.17796E+06-1.94715E+05 8.64736E-01-1.91672E+05
 -1         3-2.86595E+05-1.65867E+05-5.74472E+04-2.81394E+05 4.78703E+04 2.60746E+04
 -1         4 2.86616E+05 1.65871E+05 5.74502E+04-2.81393E+05 4.78643E+04-2.60659E+04
 -1         5-2.86600E+05-1.65859E+05-5.74380E+04-2.81392E+05-4.78731E+04-2.60735E+04
 -1         6 2.86615E+05 1.65872E+05 5.74450E+04-2.81400E+05-4.78651E+04 2.60727E+04
 -1         7-3.02907E+06-1.17797E+06-1.17797E+06-1.94702E+05-8.64815E-01 1.91697E+05
 -1         8 3.02910E+06 1.17798E+06 1.17798E+06-1.94703E+05-8.64806E-01-1.91680E+05
 -1         9 8.93754E+00 3.47572E+00 3.47572E+00-1.69808E+05 8.64827E-01 8.85519E+00
 -1        10-1.52624E+06 1.95775E+05-5.27432E+04-2.47530E+05-1.18452E+05 4.85291E+04
 -1        11-2.15535E+06-2.81466E+05 1.10291E+04-5.80108E+04 1.49155E+05-3.93071E+04
 -1        12-7.52475E+05 8.15655E+04 2.88371E+04-1.30060E+04-2.66259E+04 5.03372E+03
 -1        13 5.94936E+00-3.23913E-01-2.07351E+00-3.09038E+05 4.78675E+04 6.65956E+00
 -1        14 1.52625E+06-1.95770E+05 5.27429E+04-2.47546E+05-1.18454E+05-4.85253E+04
 -1        15 2.15536E+06 2.81469E+05-1.10296E+04-5.80194E+04 1.49153E+05 3.93205E+04
 -1        16 7.52497E+05-8.15424E+04-2.88253E+04-1.30123E+04-2.66337E+04-5.02864E+03
 -1        17-2.77360E+05-1.62274E+05-5.38514E+04-2.54769E+05-7.54442E-01 4.61877E-01
 -1        18 1.16096E+01 7.36844E+00 3.25653E+00-3.09040E+05-4.78689E+04 1.85934E+00
 -1        19 2.77377E+05 1.62276E+05 5.38541E+04-2.54773E+05 2.36693E-01 3.70189E+00
 -1        20-1.52624E+06 1.95770E+05-5.27418E+04-2.47540E+05 1.18447E+05-4.85157E+04
 -1        21-7.52491E+05 8.15510E+04 2.88341E+04-1.30094E+04 2.66271E+04-5.02550E+03
 -1        22-2.15536E+06-2.81471E+05 1.10279E+04-5.79998E+04-1.49150E+05 3.93178E+04
 -1        23 1.22553E+01 4.76593E+00 4.76593E+00-1.69795E+05-8.64707E-01 8.47356E+00
 -1        24 1.52622E+06-1.95767E+05 5.27473E+04-2.47522E+05 1.18456E+05 4.85226E+04
 -1        25 7.52482E+05-8.15525E+04-2.88293E+04-1.30057E+04 2.66315E+04 5.02709E+03
 -1        26 2.15536E+06 2.81474E+05-1.10220E+04-5.79899E+04-1.49147E+05-3.93029E+04
 -1        27-3.03844E+06-1.18162E+06-1.18161E+06-2.19055E+05 6.52695E-05 1.27972E+01
 -1        28 3.03846E+06 1.18162E+06 1.18162E+06-2.19056E+05 5.61602E-05 4.55328E+00
 -1        29 1.51937E+00 1.63730E+00-1.77253E+00-2.48906E+05-1.18453E+05-2.50049E+00
 -1        30-1.10848E+01 1.23626E+00 1.64014E+00-2.48899E+05 1.18451E+05-1.14977E+00
 -1        31 1.52630E+06-1.95744E+05 5.27715E+04-2.32175E+05 8.01740E-01-1.30449E+00
 -1        32-1.52631E+06 1.95742E+05-5.27710E+04-2.32176E+05-3.01902E+00 6.61726E+00
 -3
    1PSTEP                         3           1           1          
  100CL  101 1.000000000          32                     0    1           1
 -4  TOSTRAIN    6    1
 -5  EXX         1    4    1    1
 -5  EYY         1    4    2    2
 -5  EZZ         1    4    3    3
 -5  EXY         1    4    1    2
 -5  EYZ         1    4    2    3
 -5  EZX         1    4    3    1
 -1         1 1.12828E-05 5.61938E-12-5.05344E-12-1.18684E-06 5.27061E-12 1.16839E-06
 -1         2-1.12828E-05-5.61940E-12 5.05342E-12-1.18684E-06 5.27077E-12-1.16829E-06
 -1         3-1.06698E-06-3.31121E-07 3.29724E-07-1.71517E-06 2.91781E-07 1.58931E-07
 -1         4 1.06708E-06 3.31107E-07-3.29744E-07-1.71516E-06 2.91744E-07-1.58878E-07
 -1         5-1.06703E-06-3.31088E-07 3.29764E-07-1.71515E-06-2.91798E-07-1.58924E-07
 -1         6 1.06708E-06 3.31119E-07-3.29768E-07-1.71520E-06-2.91749E-07 1.58919E-07
 -1         7-1.12829E-05-5.61955E-12 5.05329E-12-1.18676E-06-5.27125E-12 1.16844E-06
 -1         8 1.12830E-05 5.61945E-12-5.05344E-12-1.18676E-06-5.27120E-12-1.16834E-06
 -1         9 3.32911E-11 3.10822E-17 3.95794E-17-1.03502E-06 5.27132E-12 5.39745E-11
 -1        10-7.45852E-06 3.03757E-06 1.52280E-06-1.50876E-06-7.21994E-07 2.95797E-07
 -1        11-9.90299E-06 1.51878E-06 3.30161E-06-3.53590E-07 9.09133E-07-2.39586E-07
 -1        12-3.73042E-06 1.35326E-06 1.03187E-06-7.92746E-08-1.62291E-07 3.06817E-08
 -1        13 3.15268E-11-6.71023E-12-1.73745E-11-1.88366E-06 2.91764E-07 4.05916E-11
 -1        14 7.45854E-06-3.03756E-06-1.52281E-06-1.50885E-06-7.22002E-07-2.95773E-07
 -1        15 9.90302E-06-1.51878E-06-3.30162E-06-3.53642E-07 9.09124E-07 2.39668E-07
 -1        16 3.73048E-06-1.35319E-06-1.03187E-06-7.93132E-08-1.62339E-07-3.06508E-08
 -1        17-1.03260E-06-3.31118E-07 3.29744E-07-1.55288E-06-4.59850E-12 2.81525E-12
 -1        18 4.11173E-11 1.52662E-11-9.79680E-12-1.88367E-06-2.91772E-07 1.13331E-11
 -1        19 1.03267E-06 3.31099E-07-3.29756E-07-1.55290E-06 1.44270E-12 2.25639E-11
 -1        20-7.45852E-06 3.03755E-06 1.52281E-06-1.50882E-06 7.21962E-07-2.95715E-07
 -1        21-3.73047E-06 1.35321E-06 1.03189E-06-7.92954E-08 1.62298E-07-3.06316E-08
 -1        22-9.90300E-06 1.51876E-06 3.30162E-06-3.53522E-07-9.09107E-07 2.39651E-07
 -1        23 4.56493E-11-1.29124E-17-2.25635E-17-1.03494E-06-5.27059E-12 5.16484E-11
 -1        24 7.45840E-06-3.03751E-06-1.52276E-06-1.50870E-06 7.22017E-07 2.95757E-07
 -1        25 3.73042E-06-1.35322E-06-1.03185E-06-7.92726E-08 1.62326E-07 3.06413E-08
 -1        26 9.90301E-06-1.51876E-06-3.30160E-06-3.53462E-07-9.09084E-07-2.39560E-07
 -1        27-1.13178E-05-5.61947E-12 5.05342E-12-1.33519E-06 3.97834E-16 7.80017E-11
 -1        28 1.13179E-05 5.61942E-12-5.05337E-12-1.33520E-06 3.42310E-16 2.77533E-11
 -1        29 7.41541E-12 8.13422E-12-1.26495E-11-1.51714E-06-7.22002E-07-1.52411E-11
 -1        30-5.66199E-11 1.84798E-11 2.09416E-11-1.51710E-06 7.21986E-07-7.00810E-12
 -1        31 7.45873E-06-3.03755E-06-1.52278E-06-1.41516E-06 4.88680E-12-7.95117E-12
 -1        32-7.45878E-06 3.03755E-06 1.52280E-06-1.41517E-06-1.84016E-11 4.03338E-11
 -3
    1PSTEP                         4           1           1          
  100CL  101 1.000000000          32                     0    1           1
 -4  FORC        4    1
 -5  F1          1    2    1    0
 -5  F2          1    2    2    0
 -5  F3          1    2    3    0
 -5  ALL         1    2    0    0    1ALL
 -1         1-9.46915E+02 1.93214E+03-6.11543E+02
 -1         2 9.46904E+02 1.93213E+03 6.11539E+02
 -1         3-2.28013E-11 8.33332E+01 4.31211E-11
 -1         4 1.59319E-11 8.33332E+01-1.95977E-11
 -1         5 9.09495E-13 8.33332E+01 8.49631E-11
 -1         6-1.55836E-11 8.33332E+01-9.31577E-12
 -1         7 9.46892E+02 1.93213E+03-6.11541E+02
 -1         8-9.46920E+02 1.93213E+03 6.11544E+02
 -1         9-5.51575E-02-4.53384E+03-2.84213E-02
 -1        10-8.23253E-12 1.68252E-11 3.40847E-11
 -1        11 2.47416E-02-2.14115E-02 1.05468E-02
 -1        12-3.68952E-02-3.70714E-02-1.40399E-02
 -1        13 6.59835E-03-3.33324E+02 5.11586E-03
 -1        14-2.11390E-11-6.92686E-11-6.44306E-11
 -1        15-6.75138E-02-8.64596E-03 1.42470E-02
 -1        16-2.55034E-02 2.73857E-02-2.74425E-02
 -1        17 1.46593E-02-3.33343E+02 3.71407E-03
 -1        18 2.57908E-02-3.33327E+02 1.08806E-02
 -1        19 2.25681E-02-3.33327E+02 2.33286E-03
 -1        20-2.59321E-11-1.30414E-10 2.91005E-11
 -1        21-1.68663E-02-1.83256E-02 2.09646E-02
 -1        22 5.49700E-02 1.53478E-02-3.29887E-03
 -1        23 3.84286E-02-4.53385E+03-7.26072E-03
 -1        24-9.46868E-13-7.25176E-11-2.88251E-11
 -1        25-1.65091E-02 7.58117E-03 8.10359E-03
 -1        26 8.79111E-02 2.24038E-02 5.18516E-02
 -1        27 3.10617E+03 1.16957E+03-2.64640E-02
 -1        28-3.10619E+03 1.16959E+03-1.92001E-02
 -1        29 4.23561E-12-4.59838E-10 5.03725E-11
 -1        30 1.65297E-11-3.39465E-10 2.93161E-11
 -1        31-5.61542E-11-1.34441E-10-8.50253E-11
 -1        32 7.62608E-11-3.69491E-11-4.02665E-11
 -3
 9999
