    1C
    1UHash: VR65Iah5, Date: 01/25/2026, Unit system: M_KG_S_C           
    1UUSER                                                              
    1UDATE              25.january.2026                                 
    1UTIME              23:55:49                                        
    1UHOST                                                              
    1UPGM               CalculiX                                        
    1UVERSION           Version 2.23                             
    1UCOMPILETIME       Sun Jan 11 00:39:44 CET 2026                    
    1UDIR                                                               
    1UDBN                                                               
    1UMAT    1S235                                                      
    2C                           261                                     1
 -1         1-2.50000E-01 7.00000E-02-5.00000E-02
 -1         2-2.50000E-01-7.00000E-02-5.00000E-02
 -1         3 2.50000E-01-7.00000E-02-5.00000E-02
 -1         4 2.50000E-01 7.00000E-02-5.00000E-02
 -1         5 2.50000E-01-7.00000E-02 5.00000E-02
 -1         6 2.50000E-01 7.00000E-02 5.00000E-02
 -1         7-2.50000E-01-7.00000E-02 5.00000E-02
 -1         8-2.50000E-01 7.00000E-02 5.00000E-02
 -1         9-2.50000E-01 1.94289E-16-5.00000E-02
 -1        10-2.50000E-01 3.50000E-02-5.00000E-02
 -1        11-2.50000E-01-3.50000E-02-5.00000E-02
 -1        12-1.87500E-01-7.00000E-02-5.00000E-02
 -1        13-1.25000E-01-7.00000E-02-5.00000E-02
 -1        14-6.25000E-02-7.00000E-02-5.00000E-02
 -1        15 0.00000E+00-7.00000E-02-5.00000E-02
 -1        16 6.25000E-02-7.00000E-02-5.00000E-02
 -1        17 1.25000E-01-7.00000E-02-5.00000E-02
 -1        18 1.87500E-01-7.00000E-02-5.00000E-02
 -1        19-2.18750E-01-7.00000E-02-5.00000E-02
 -1        20-1.56250E-01-7.00000E-02-5.00000E-02
 -1        21-9.37500E-02-7.00000E-02-5.00000E-02
 -1        22-3.12500E-02-7.00000E-02-5.00000E-02
 -1        23 3.12500E-02-7.00000E-02-5.00000E-02
 -1        24 9.37500E-02-7.00000E-02-5.00000E-02
 -1        25 1.56250E-01-7.00000E-02-5.00000E-02
 -1        26 2.18750E-01-7.00000E-02-5.00000E-02
 -1        27 2.50000E-01 1.94289E-16-5.00000E-02
 -1        28 2.50000E-01 3.50000E-02-5.00000E-02
 -1        29 2.50000E-01-3.50000E-02-5.00000E-02
 -1        30-1.87500E-01 7.00000E-02-5.00000E-02
 -1        31-1.25000E-01 7.00000E-02-5.00000E-02
 -1        32-6.25000E-02 7.00000E-02-5.00000E-02
 -1        33 0.00000E+00 7.00000E-02-5.00000E-02
 -1        34 6.25000E-02 7.00000E-02-5.00000E-02
 -1        35 1.25000E-01 7.00000E-02-5.00000E-02
 -1        36 1.87500E-01 7.00000E-02-5.00000E-02
 -1        37-2.18750E-01 7.00000E-02-5.00000E-02
 -1        38-1.56250E-01 7.00000E-02-5.00000E-02
 -1        39-9.37500E-02 7.00000E-02-5.00000E-02
 -1        40-3.12500E-02 7.00000E-02-5.00000E-02
 -1        41 3.12500E-02 7.00000E-02-5.00000E-02
 -1        42 9.37500E-02 7.00000E-02-5.00000E-02
 -1        43 1.56250E-01 7.00000E-02-5.00000E-02
 -1        44 2.18750E-01 7.00000E-02-5.00000E-02
 -1        45 2.50000E-01-7.00000E-02 3.46945E-17
 -1        46 2.50000E-01-7.00000E-02-2.50000E-02
 -1        47 2.50000E-01-7.00000E-02 2.50000E-02
 -1        48 2.50000E-01 1.94289E-16 5.00000E-02
 -1        49 2.50000E-01 3.50000E-02 5.00000E-02
 -1        50 2.50000E-01-3.50000E-02 5.00000E-02
 -1        51 2.50000E-01 7.00000E-02 3.46945E-17
 -1        52 2.50000E-01 7.00000E-02-2.50000E-02
 -1        53 2.50000E-01 7.00000E-02 2.50000E-02
 -1        54 1.87500E-01-7.00000E-02 5.00000E-02
 -1        55 1.25000E-01-7.00000E-02 5.00000E-02
 -1        56 6.25000E-02-7.00000E-02 5.00000E-02
 -1        57 0.00000E+00-7.00000E-02 5.00000E-02
 -1        58-6.25000E-02-7.00000E-02 5.00000E-02
 -1        59-1.25000E-01-7.00000E-02 5.00000E-02
 -1        60-1.87500E-01-7.00000E-02 5.00000E-02
 -1        61 2.18750E-01-7.00000E-02 5.00000E-02
 -1        62 1.56250E-01-7.00000E-02 5.00000E-02
 -1        63 9.37500E-02-7.00000E-02 5.00000E-02
 -1        64 3.12500E-02-7.00000E-02 5.00000E-02
 -1        65-3.12500E-02-7.00000E-02 5.00000E-02
 -1        66-9.37500E-02-7.00000E-02 5.00000E-02
 -1        67-1.56250E-01-7.00000E-02 5.00000E-02
 -1        68-2.18750E-01-7.00000E-02 5.00000E-02
 -1        69-2.50000E-01 1.94289E-16 5.00000E-02
 -1        70-2.50000E-01 3.50000E-02 5.00000E-02
 -1        71-2.50000E-01-3.50000E-02 5.00000E-02
 -1        72 1.87500E-01 7.00000E-02 5.00000E-02
 -1        73 1.25000E-01 7.00000E-02 5.00000E-02
 -1        74 6.25000E-02 7.00000E-02 5.00000E-02
 -1        75 0.00000E+00 7.00000E-02 5.00000E-02
 -1        76-6.25000E-02 7.00000E-02 5.00000E-02
 -1        77-1.25000E-01 7.00000E-02 5.00000E-02
 -1        78-1.87500E-01 7.00000E-02 5.00000E-02
 -1        79 2.18750E-01 7.00000E-02 5.00000E-02
 -1        80 1.56250E-01 7.00000E-02 5.00000E-02
 -1        81 9.37500E-02 7.00000E-02 5.00000E-02
 -1        82 3.12500E-02 7.00000E-02 5.00000E-02
 -1        83-3.12500E-02 7.00000E-02 5.00000E-02
 -1        84-9.37500E-02 7.00000E-02 5.00000E-02
 -1        85-1.56250E-01 7.00000E-02 5.00000E-02
 -1        86-2.18750E-01 7.00000E-02 5.00000E-02
 -1        87-2.50000E-01-7.00000E-02-3.46945E-17
 -1        88-2.50000E-01-7.00000E-02 2.50000E-02
 -1        89-2.50000E-01-7.00000E-02-2.50000E-02
 -1        90-2.50000E-01 7.00000E-02-3.46945E-17
 -1        91-2.50000E-01 7.00000E-02 2.50000E-02
 -1        92-2.50000E-01 7.00000E-02-2.50000E-02
 -1        93-1.87500E-01 1.94289E-16-5.00000E-02
 -1        94-1.25000E-01 1.94289E-16-5.00000E-02
 -1        95-6.25000E-02 1.94289E-16-5.00000E-02
 -1        96 0.00000E+00 1.94289E-16-5.00000E-02
 -1        97 6.25000E-02 1.94289E-16-5.00000E-02
 -1        98 1.25000E-01 1.94289E-16-5.00000E-02
 -1        99 1.87500E-01 1.94289E-16-5.00000E-02
 -1       100-1.87500E-01 3.50000E-02-5.00000E-02
 -1       101-2.18750E-01 1.94289E-16-5.00000E-02
 -1       102-1.25000E-01 3.50000E-02-5.00000E-02
 -1       103-1.56250E-01 1.94289E-16-5.00000E-02
 -1       104-6.25000E-02 3.50000E-02-5.00000E-02
 -1       105-9.37500E-02 1.94289E-16-5.00000E-02
 -1       106 0.00000E+00 3.50000E-02-5.00000E-02
 -1       107-3.12500E-02 1.94289E-16-5.00000E-02
 -1       108 6.25000E-02 3.50000E-02-5.00000E-02
 -1       109 3.12500E-02 1.94289E-16-5.00000E-02
 -1       110 1.25000E-01 3.50000E-02-5.00000E-02
 -1       111 9.37500E-02 1.94289E-16-5.00000E-02
 -1       112 1.87500E-01 3.50000E-02-5.00000E-02
 -1       113 1.56250E-01 1.94289E-16-5.00000E-02
 -1       114 2.18750E-01 1.94289E-16-5.00000E-02
 -1       115-1.87500E-01-3.50000E-02-5.00000E-02
 -1       116-1.25000E-01-3.50000E-02-5.00000E-02
 -1       117-6.25000E-02-3.50000E-02-5.00000E-02
 -1       118 0.00000E+00-3.50000E-02-5.00000E-02
 -1       119 6.25000E-02-3.50000E-02-5.00000E-02
 -1       120 1.25000E-01-3.50000E-02-5.00000E-02
 -1       121 1.87500E-01-3.50000E-02-5.00000E-02
 -1       122 2.50000E-01 1.80411E-16 4.16334E-17
 -1       123 2.50000E-01 3.50000E-02 3.81639E-17
 -1       124 2.50000E-01 1.87350E-16-2.50000E-02
 -1       125 2.50000E-01 1.87350E-16 2.50000E-02
 -1       126 2.50000E-01-3.50000E-02 3.81639E-17
 -1       127 1.87500E-01 1.94289E-16 5.00000E-02
 -1       128 1.25000E-01 1.94289E-16 5.00000E-02
 -1       129 6.25000E-02 1.94289E-16 5.00000E-02
 -1       130 0.00000E+00 1.94289E-16 5.00000E-02
 -1       131-6.25000E-02 1.94289E-16 5.00000E-02
 -1       132-1.25000E-01 1.94289E-16 5.00000E-02
 -1       133-1.87500E-01 1.94289E-16 5.00000E-02
 -1       134 1.87500E-01 3.50000E-02 5.00000E-02
 -1       135 2.18750E-01 1.94289E-16 5.00000E-02
 -1       136 1.25000E-01 3.50000E-02 5.00000E-02
 -1       137 1.56250E-01 1.94289E-16 5.00000E-02
 -1       138 6.25000E-02 3.50000E-02 5.00000E-02
 -1       139 9.37500E-02 1.94289E-16 5.00000E-02
 -1       140 0.00000E+00 3.50000E-02 5.00000E-02
 -1       141 3.12500E-02 1.94289E-16 5.00000E-02
 -1       142-6.25000E-02 3.50000E-02 5.00000E-02
 -1       143-3.12500E-02 1.94289E-16 5.00000E-02
 -1       144-1.25000E-01 3.50000E-02 5.00000E-02
 -1       145-9.37500E-02 1.94289E-16 5.00000E-02
 -1       146-1.87500E-01 3.50000E-02 5.00000E-02
 -1       147-1.56250E-01 1.94289E-16 5.00000E-02
 -1       148-2.18750E-01 1.94289E-16 5.00000E-02
 -1       149 1.87500E-01-3.50000E-02 5.00000E-02
 -1       150 1.25000E-01-3.50000E-02 5.00000E-02
 -1       151 6.25000E-02-3.50000E-02 5.00000E-02
 -1       152 0.00000E+00-3.50000E-02 5.00000E-02
 -1       153-6.25000E-02-3.50000E-02 5.00000E-02
 -1       154-1.25000E-01-3.50000E-02 5.00000E-02
 -1       155-1.87500E-01-3.50000E-02 5.00000E-02
 -1       156-2.50000E-01 1.80411E-16-4.16334E-17
 -1       157-2.50000E-01 3.50000E-02-3.81639E-17
 -1       158-2.50000E-01 1.87350E-16 2.50000E-02
 -1       159-2.50000E-01 1.87350E-16-2.50000E-02
 -1       160-2.50000E-01-3.50000E-02-3.81639E-17
 -1       161-1.87500E-01 7.00000E-02-2.42861E-17
 -1       162-1.25000E-01 7.00000E-02-1.73472E-17
 -1       163-6.25000E-02 7.00000E-02-1.04083E-17
 -1       164-5.78241E-18 7.00000E-02 4.45737E-30
 -1       165 6.25000E-02 7.00000E-02 6.93889E-18
 -1       166 1.25000E-01 7.00000E-02 1.73472E-17
 -1       167 1.87500E-01 7.00000E-02 2.60209E-17
 -1       168-1.87500E-01 7.00000E-02 2.50000E-02
 -1       169-2.18750E-01 7.00000E-02-2.94903E-17
 -1       170-1.25000E-01 7.00000E-02 2.50000E-02
 -1       171-1.56250E-01 7.00000E-02-2.08167E-17
 -1       172-6.25000E-02 7.00000E-02 2.50000E-02
 -1       173-9.37500E-02 7.00000E-02-1.38778E-17
 -1       174-2.89121E-18 7.00000E-02 2.50000E-02
 -1       175-3.12500E-02 7.00000E-02-5.20417E-18
 -1       176 6.25000E-02 7.00000E-02 2.50000E-02
 -1       177 3.12500E-02 7.00000E-02 3.46945E-18
 -1       178 1.25000E-01 7.00000E-02 2.50000E-02
 -1       179 9.37500E-02 7.00000E-02 1.21431E-17
 -1       180 1.87500E-01 7.00000E-02 2.50000E-02
 -1       181 1.56250E-01 7.00000E-02 2.16840E-17
 -1       182 2.18750E-01 7.00000E-02 3.03577E-17
 -1       183-1.87500E-01 7.00000E-02-2.50000E-02
 -1       184-1.25000E-01 7.00000E-02-2.50000E-02
 -1       185-6.25000E-02 7.00000E-02-2.50000E-02
 -1       186-2.89121E-18 7.00000E-02-2.50000E-02
 -1       187 6.25000E-02 7.00000E-02-2.50000E-02
 -1       188 1.25000E-01 7.00000E-02-2.50000E-02
 -1       189 1.87500E-01 7.00000E-02-2.50000E-02
 -1       190-1.87500E-01-7.00000E-02-2.77556E-17
 -1       191-1.25000E-01-7.00000E-02-1.73472E-17
 -1       192-6.25000E-02-7.00000E-02-6.93889E-18
 -1       193-5.78241E-18-7.00000E-02-4.45737E-30
 -1       194 6.25000E-02-7.00000E-02 1.21431E-17
 -1       195 1.25000E-01-7.00000E-02 1.73472E-17
 -1       196 1.87500E-01-7.00000E-02 2.25514E-17
 -1       197-2.18750E-01-7.00000E-02-3.12250E-17
 -1       198-1.87500E-01-7.00000E-02 2.50000E-02
 -1       199-1.56250E-01-7.00000E-02-2.25514E-17
 -1       200-1.25000E-01-7.00000E-02 2.50000E-02
 -1       201-9.37500E-02-7.00000E-02-1.21431E-17
 -1       202-6.25000E-02-7.00000E-02 2.50000E-02
 -1       203-3.12500E-02-7.00000E-02-3.46945E-18
 -1       204-2.89121E-18-7.00000E-02 2.50000E-02
 -1       205 3.12500E-02-7.00000E-02 6.07153E-18
 -1       206 6.25000E-02-7.00000E-02 2.50000E-02
 -1       207 9.37500E-02-7.00000E-02 1.47451E-17
 -1       208 1.25000E-01-7.00000E-02 2.50000E-02
 -1       209 1.56250E-01-7.00000E-02 1.99493E-17
 -1       210 1.87500E-01-7.00000E-02 2.50000E-02
 -1       211 2.18750E-01-7.00000E-02 2.86229E-17
 -1       212-1.87500E-01-7.00000E-02-2.50000E-02
 -1       213-1.25000E-01-7.00000E-02-2.50000E-02
 -1       214-6.25000E-02-7.00000E-02-2.50000E-02
 -1       215-2.89121E-18-7.00000E-02-2.50000E-02
 -1       216 6.25000E-02-7.00000E-02-2.50000E-02
 -1       217 1.25000E-01-7.00000E-02-2.50000E-02
 -1       218 1.87500E-01-7.00000E-02-2.50000E-02
 -1       219-1.87500E-01 1.83447E-16-3.44776E-17
 -1       220-1.25000E-01 1.84748E-16-2.21177E-17
 -1       221-6.25000E-02 1.72605E-16-1.47451E-17
 -1       222-6.93889E-18 1.80411E-16-6.07153E-18
 -1       223 6.25000E-02 1.71738E-16 8.67362E-18
 -1       224 1.25000E-01 1.71738E-16 1.56125E-17
 -1       225 1.87500E-01 1.70003E-16 2.94903E-17
 -1       226-1.87500E-01 1.88868E-16-2.50000E-02
 -1       227-2.18750E-01 1.81929E-16-3.80555E-17
 -1       228-1.87500E-01 3.50000E-02-2.93819E-17
 -1       229-1.87500E-01 1.88868E-16 2.50000E-02
 -1       230-1.25000E-01 1.89519E-16-2.50000E-02
 -1       231-1.56250E-01 1.84098E-16-2.82977E-17
 -1       232-1.25000E-01 3.50000E-02-1.97325E-17
 -1       233-1.25000E-01 1.89519E-16 2.50000E-02
 -1       234-6.25000E-02 1.83447E-16-2.50000E-02
 -1       235-9.37500E-02 1.78677E-16-1.84314E-17
 -1       236-6.25000E-02 3.50000E-02-1.25767E-17
 -1       237-6.25000E-02 1.83447E-16 2.50000E-02
 -1       238-3.46945E-18 1.87350E-16-2.50000E-02
 -1       239-3.12500E-02 1.76508E-16-1.04083E-17
 -1       240-6.36065E-18 3.50000E-02-3.03577E-18
 -1       241-3.46945E-18 1.87350E-16 2.50000E-02
 -1       242 6.25000E-02 1.83013E-16-2.50000E-02
 -1       243 3.12500E-02 1.76074E-16 1.30104E-18
 -1       244 6.25000E-02 3.50000E-02 7.80626E-18
 -1       245 6.25000E-02 1.83013E-16 2.50000E-02
 -1       246 1.25000E-01 1.83013E-16-2.50000E-02
 -1       247 9.37500E-02 1.71738E-16 1.21431E-17
 -1       248 1.25000E-01 3.50000E-02 1.64799E-17
 -1       249 1.25000E-01 1.83013E-16 2.50000E-02
 -1       250 1.87500E-01 1.82146E-16-2.50000E-02
 -1       251 1.56250E-01 1.70870E-16 2.25514E-17
 -1       252 1.87500E-01 3.50000E-02 2.77556E-17
 -1       253 1.87500E-01 1.82146E-16 2.50000E-02
 -1       254 2.18750E-01 1.75207E-16 3.55618E-17
 -1       255-1.87500E-01-3.50000E-02-3.11166E-17
 -1       256-1.25000E-01-3.50000E-02-1.97325E-17
 -1       257-6.25000E-02-3.50000E-02-1.08420E-17
 -1       258-6.36065E-18-3.50000E-02-3.03577E-18
 -1       259 6.25000E-02-3.50000E-02 1.04083E-17
 -1       260 1.25000E-01-3.50000E-02 1.64799E-17
 -1       261 1.87500E-01-3.50000E-02 2.60209E-17
 -3
    3C                            32                                     1
 -1         1    4    0    1
 -2         1         9        93        30        90       156       219       161        10       101
 -2       100        37        92       159       226       183       157       227       228       169
 -1         2    4    0    1
 -2        90       156       219       161         8        69       133        78       157       227
 -2       228       169        91       158       229       168        70       148       146        86
 -1         3    4    0    1
 -2        30        93        94        31       161       219       220       162       100       103
 -2       102        38       183       226       230       184       228       231       232       171
 -1         4    4    0    1
 -2       161       219       220       162        78       133       132        77       228       231
 -2       232       171       168       229       233       170       146       147       144        85
 -1         5    4    0    1
 -2        31        94        95        32       162       220       221       163       102       105
 -2       104        39       184       230       234       185       232       235       236       173
 -1         6    4    0    1
 -2       162       220       221       163        77       132       131        76       232       235
 -2       236       173       170       233       237       172       144       145       142        84
 -1         7    4    0    1
 -2        32        95        96        33       163       221       222       164       104       107
 -2       106        40       185       234       238       186       236       239       240       175
 -1         8    4    0    1
 -2       163       221       222       164        76       131       130        75       236       239
 -2       240       175       172       237       241       174       142       143       140        83
 -1         9    4    0    1
 -2        33        96        97        34       164       222       223       165       106       109
 -2       108        41       186       238       242       187       240       243       244       177
 -1        10    4    0    1
 -2       164       222       223       165        75       130       129        74       240       243
 -2       244       177       174       241       245       176       140       141       138        82
 -1        11    4    0    1
 -2        34        97        98        35       165       223       224       166       108       111
 -2       110        42       187       242       246       188       244       247       248       179
 -1        12    4    0    1
 -2       165       223       224       166        74       129       128        73       244       247
 -2       248       179       176       245       249       178       138       139       136        81
 -1        13    4    0    1
 -2        35        98        99        36       166       224       225       167       110       113
 -2       112        43       188       246       250       189       248       251       252       181
 -1        14    4    0    1
 -2       166       224       225       167        73       128       127        72       248       251
 -2       252       181       178       249       253       180       136       137       134        80
 -1        15    4    0    1
 -2        36        99        27         4       167       225       122        51       112       114
 -2        28        44       189       250       124        52       252       254       123       182
 -1        16    4    0    1
 -2       167       225       122        51        72       127        48         6       252       254
 -2       123       182       180       253       125        53       134       135        49        79
 -1        17    4    0    1
 -2         9         2        12        93       156        87       190       219        11        19
 -2       115       101       159        89       212       226       160       197       255       227
 -1        18    4    0    1
 -2       156        87       190       219        69         7        60       133       160       197
 -2       255       227       158        88       198       229        71        68       155       148
 -1        19    4    0    1
 -2        93        12        13        94       219       190       191       220       115        20
 -2       116       103       226       212       213       230       255       199       256       231
 -1        20    4    0    1
 -2       219       190       191       220       133        60        59       132       255       199
 -2       256       231       229       198       200       233       155        67       154       147
 -1        21    4    0    1
 -2        94        13        14        95       220       191       192       221       116        21
 -2       117       105       230       213       214       234       256       201       257       235
 -1        22    4    0    1
 -2       220       191       192       221       132        59        58       131       256       201
 -2       257       235       233       200       202       237       154        66       153       145
 -1        23    4    0    1
 -2        95        14        15        96       221       192       193       222       117        22
 -2       118       107       234       214       215       238       257       203       258       239
 -1        24    4    0    1
 -2       221       192       193       222       131        58        57       130       257       203
 -2       258       239       237       202       204       241       153        65       152       143
 -1        25    4    0    1
 -2        96        15        16        97       222       193       194       223       118        23
 -2       119       109       238       215       216       242       258       205       259       243
 -1        26    4    0    1
 -2       222       193       194       223       130        57        56       129       258       205
 -2       259       243       241       204       206       245       152        64       151       141
 -1        27    4    0    1
 -2        97        16        17        98       223       194       195       224       119        24
 -2       120       111       242       216       217       246       259       207       260       247
 -1        28    4    0    1
 -2       223       194       195       224       129        56        55       128       259       207
 -2       260       247       245       206       208       249       151        63       150       139
 -1        29    4    0    1
 -2        98        17        18        99       224       195       196       225       120        25
 -2       121       113       246       217       218       250       260       209       261       251
 -1        30    4    0    1
 -2       224       195       196       225       128        55        54       127       260       209
 -2       261       251       249       208       210       253       150        62       149       137
 -1        31    4    0    1
 -2        99        18         3        27       225       196        45       122       121        26
 -2        29       114       250       218        46       124       261       211       126       254
 -1        32    4    0    1
 -2       225       196        45       122       127        54         5        48       261       211
 -2       126       254       253       210        47       125       149        61        50       135
 -3
    1PSTEP                         1           1           1          
  100CL  101 1.000000000         261                     0    1           1
 -4  DISP        4    1
 -5  D1          1    2    1    0
 -5  D2          1    2    2    0
 -5  D3          1    2    3    0
 -5  ALL         1    2    0    0    1ALL
 -1         1 0.00000E+00 0.00000E+00 0.00000E+00
 -1         2 0.00000E+00 0.00000E+00 0.00000E+00
 -1         3-1.81102E-06-9.01539E-06-1.32078E-08
 -1         4 1.80695E-06-9.01540E-06-1.52531E-08
 -1         5-1.80691E-06-9.01532E-06-1.51868E-08
 -1         6 1.81102E-06-9.01535E-06-1.32966E-08
 -1         7 0.00000E+00 0.00000E+00 0.00000E+00
 -1         8 0.00000E+00 0.00000E+00 0.00000E+00
 -1         9 0.00000E+00 0.00000E+00 0.00000E+00
 -1        10 0.00000E+00 0.00000E+00 0.00000E+00
 -1        11 0.00000E+00 0.00000E+00 0.00000E+00
 -1        12-4.14078E-07-2.55935E-07-8.74257E-08
 -1        13-7.81555E-07-8.45006E-07-7.81932E-08
 -1        14-1.09396E-06-1.73994E-06-6.68190E-08
 -1        15-1.35065E-06-2.88775E-06-5.58176E-08
 -1        16-1.55017E-06-4.23935E-06-4.49876E-08
 -1        17-1.69274E-06-5.74330E-06-3.45722E-08
 -1        18-1.77866E-06-7.34888E-06-2.46629E-08
 -1        19-2.08286E-07-9.42710E-08-8.15888E-08
 -1        20-6.04891E-07-5.10418E-07-8.39605E-08
 -1        21-9.44436E-07-1.25777E-06-7.24610E-08
 -1        22-1.22942E-06-2.28518E-06-6.12906E-08
 -1        23-1.45741E-06-3.54132E-06-5.03721E-08
 -1        24-1.62853E-06-4.97545E-06-3.97419E-08
 -1        25-1.74275E-06-6.53646E-06-2.95628E-08
 -1        26-1.80093E-06-8.17395E-06-2.00820E-08
 -1        27-2.06235E-09-8.99872E-06-1.42637E-08
 -1        28 8.87343E-07-9.00650E-06-1.69455E-08
 -1        29-8.91428E-07-9.00649E-06-1.15384E-08
 -1        30 4.13019E-07-2.55679E-07 8.65484E-08
 -1        31 7.79745E-07-8.44802E-07 7.51737E-08
 -1        32 1.09154E-06-1.73979E-06 6.08554E-08
 -1        33 1.34776E-06-2.88759E-06 4.63579E-08
 -1        34 1.54676E-06-4.23920E-06 3.14670E-08
 -1        35 1.68889E-06-5.74316E-06 1.63764E-08
 -1        36 1.77459E-06-7.34884E-06 1.37997E-09
 -1        37 2.07755E-07-9.40491E-08 8.12982E-08
 -1        38 6.03407E-07-5.10197E-07 8.21305E-08
 -1        39 9.42326E-07-1.25758E-06 6.80628E-08
 -1        40 1.22675E-06-2.28503E-06 5.36300E-08
 -1        41 1.45427E-06-3.54116E-06 3.89483E-08
 -1        42 1.62487E-06-4.97532E-06 2.39361E-08
 -1        43 1.73877E-06-6.53638E-06 8.86111E-09
 -1        44 1.79685E-06-8.17392E-06-5.79835E-09
 -1        45-1.81428E-06-9.01795E-06-1.41809E-08
 -1        46-1.81455E-06-9.01735E-06-1.39156E-08
 -1        47-1.81250E-06-9.01732E-06-1.44686E-08
 -1        48 2.07201E-09-8.99867E-06-1.42680E-08
 -1        49 8.91463E-07-9.00645E-06-1.16047E-08
 -1        50-8.87324E-07-9.00642E-06-1.68887E-08
 -1        51 1.81430E-06-9.01794E-06-1.42784E-08
 -1        52 1.81253E-06-9.01736E-06-1.45425E-08
 -1        53 1.81457E-06-9.01733E-06-1.40067E-08
 -1        54-1.77454E-06-7.34876E-06 1.49453E-09
 -1        55-1.68889E-06-5.74306E-06 1.65502E-08
 -1        56-1.54674E-06-4.23916E-06 3.15223E-08
 -1        57-1.34770E-06-2.88766E-06 4.62775E-08
 -1        58-1.09145E-06-1.73995E-06 6.06215E-08
 -1        59-7.79591E-07-8.44995E-07 7.48867E-08
 -1        60-4.12908E-07-2.55774E-07 8.63939E-08
 -1        61-1.79680E-06-8.17385E-06-5.71032E-09
 -1        62-1.73874E-06-6.53629E-06 9.00774E-09
 -1        63-1.62487E-06-4.97523E-06 2.40690E-08
 -1        64-1.45423E-06-3.54117E-06 3.89472E-08
 -1        65-1.22668E-06-2.28514E-06 5.34890E-08
 -1        66-9.42190E-07-1.25778E-06 6.77797E-08
 -1        67-6.03276E-07-5.10344E-07 8.19078E-08
 -1        68-2.07676E-07-9.40884E-08 8.12198E-08
 -1        69 0.00000E+00 0.00000E+00 0.00000E+00
 -1        70 0.00000E+00 0.00000E+00 0.00000E+00
 -1        71 0.00000E+00 0.00000E+00 0.00000E+00
 -1        72 1.77865E-06-7.34879E-06-2.47908E-08
 -1        73 1.69275E-06-5.74317E-06-3.46934E-08
 -1        74 1.55024E-06-4.23929E-06-4.50548E-08
 -1        75 1.35078E-06-2.88779E-06-5.57594E-08
 -1        76 1.09412E-06-1.74010E-06-6.66009E-08
 -1        77 7.81623E-07-8.45219E-07-7.79015E-08
 -1        78 4.14090E-07-2.56045E-07-8.73004E-08
 -1        79 1.80091E-06-8.17387E-06-2.01679E-08
 -1        80 1.74276E-06-6.53637E-06-2.97069E-08
 -1        81 1.62852E-06-4.97535E-06-3.98411E-08
 -1        82 1.45756E-06-3.54129E-06-5.03840E-08
 -1        83 1.22954E-06-2.28528E-06-6.11380E-08
 -1        84 9.44591E-07-1.25796E-06-7.21971E-08
 -1        85 6.04901E-07-5.10605E-07-8.37374E-08
 -1        86 2.08294E-07-9.43342E-08-8.15311E-08
 -1        87 0.00000E+00 0.00000E+00 0.00000E+00
 -1        88 0.00000E+00 0.00000E+00 0.00000E+00
 -1        89 0.00000E+00 0.00000E+00 0.00000E+00
 -1        90 0.00000E+00 0.00000E+00 0.00000E+00
 -1        91 0.00000E+00 0.00000E+00 0.00000E+00
 -1        92 0.00000E+00 0.00000E+00 0.00000E+00
 -1        93-5.21285E-10-2.00486E-07-5.29865E-10
 -1        94-9.07685E-10-7.91616E-07-1.58622E-09
 -1        95-1.20402E-09-1.69509E-06-3.03545E-09
 -1        96-1.44984E-09-2.85201E-06-4.79083E-09
 -1        97-1.70871E-09-4.21247E-06-6.81901E-09
 -1        98-1.92696E-09-5.72542E-06-9.13885E-09
 -1        99-2.02694E-09-7.34006E-06-1.16632E-08
 -1       100 1.95341E-07-2.07948E-07 4.27250E-08
 -1       101-2.60301E-10-3.25276E-08-2.08524E-10
 -1       102 3.78169E-07-8.06027E-07 3.70130E-08
 -1       103-7.28090E-10-4.52683E-07-9.95267E-10
 -1       104 5.34706E-07-1.70599E-06 2.89021E-08
 -1       105-1.06851E-09-1.20833E-06-2.26371E-09
 -1       106 6.62518E-07-2.86094E-06 2.07541E-08
 -1       107-1.32530E-09-2.24496E-06-3.87902E-09
 -1       108 7.61933E-07-4.21912E-06 1.23167E-08
 -1       109-1.58104E-09-3.51000E-06-5.76736E-09
 -1       110 8.32923E-07-5.72981E-06 3.59478E-09
 -1       111-1.82487E-09-4.95305E-06-7.94297E-09
 -1       112 8.75276E-07-7.34224E-06-5.27698E-09
 -1       113-1.99396E-09-6.52326E-06-1.03789E-08
 -1       114-2.05532E-09-8.17076E-06-1.29561E-08
 -1       115-1.96385E-07-2.08063E-07-4.37383E-08
 -1       116-3.80007E-07-8.06138E-07-4.01239E-08
 -1       117-5.37123E-07-1.70607E-06-3.49382E-08
 -1       118-6.65438E-07-2.86102E-06-3.02988E-08
 -1       119-7.65341E-07-4.21920E-06-2.59267E-08
 -1       120-8.36755E-07-5.72988E-06-2.18522E-08
 -1       121-8.79335E-07-7.34227E-06-1.80374E-08
 -1       122 2.78428E-11-8.99994E-06-1.42630E-08
 -1       123 8.93196E-07-9.00836E-06-1.42605E-08
 -1       124-1.01321E-09-8.99883E-06-1.42664E-08
 -1       125 1.03627E-09-8.99880E-06-1.42646E-08
 -1       126-8.93177E-07-9.00836E-06-1.42055E-08
 -1       127 2.03287E-09-7.33997E-06-1.16772E-08
 -1       128 1.93882E-09-5.72534E-06-9.12177E-09
 -1       129 1.75391E-09-4.21245E-06-6.81314E-09
 -1       130 1.54963E-09-2.85205E-06-4.78590E-09
 -1       131 1.33134E-09-1.69524E-06-3.04743E-09
 -1       132 1.01998E-09-7.91786E-07-1.57544E-09
 -1       133 5.97608E-10-2.00584E-07-5.35698E-10
 -1       134 8.79339E-07-7.34219E-06-1.80913E-08
 -1       135 2.05714E-09-8.17068E-06-1.29623E-08
 -1       136 8.36782E-07-5.72978E-06-2.19013E-08
 -1       137 2.01333E-09-6.52317E-06-1.03836E-08
 -1       138 7.65418E-07-4.21917E-06-2.59494E-08
 -1       139 1.84476E-09-4.95299E-06-7.93094E-09
 -1       140 6.65550E-07-2.86106E-06-3.02547E-08
 -1       141 1.65807E-09-3.51001E-06-5.76469E-09
 -1       142 5.37262E-07-1.70622E-06-3.48365E-08
 -1       143 1.43378E-09-2.24506E-06-3.88016E-09
 -1       144 3.80098E-07-8.06315E-07-4.00004E-08
 -1       145 1.19769E-09-1.20849E-06-2.26988E-09
 -1       146 1.96411E-07-2.08171E-07-4.36799E-08
 -1       147 8.27353E-10-4.52820E-07-9.97203E-10
 -1       148 3.02048E-10-3.25869E-08-2.15772E-10
 -1       149-8.75257E-07-7.34216E-06-5.22022E-09
 -1       150-8.32912E-07-5.72973E-06 3.66526E-09
 -1       151-7.61906E-07-4.21910E-06 1.23400E-08
 -1       152-6.62465E-07-2.86100E-06 2.07213E-08
 -1       153-5.34617E-07-1.70613E-06 2.87956E-08
 -1       154-3.78052E-07-8.06210E-07 3.68825E-08
 -1       155-1.95243E-07-2.08052E-07 4.26403E-08
 -1       156 0.00000E+00 0.00000E+00 0.00000E+00
 -1       157 0.00000E+00 0.00000E+00 0.00000E+00
 -1       158 0.00000E+00 0.00000E+00 0.00000E+00
 -1       159 0.00000E+00 0.00000E+00 0.00000E+00
 -1       160 0.00000E+00 0.00000E+00 0.00000E+00
 -1       161 4.15136E-07-2.88680E-07-3.22824E-10