    1C
    1UHash: HGmr4Q6g, Date: 01/25/2026, Unit system: M_KG_S_C           
    1UUSER                                                              
    1UDATE              25.january.2026                                 
    1UTIME              23:54:22                                        
    1UHOST                                                              
    1UPGM               CalculiX                                        
    1UVERSION           Version 2.23                             
    1UCOMPILETIME       Sun Jan 11 00:39:44 CET 2026                    
    1UDIR                                                               
    1UDBN                                                               
    1UMAT    1S235                                                      
    2C                           261                                     1
 -1         1-2.50000E-01 6.00000E-02-5.00000E-02
 -1         2-2.50000E-01-6.00000E-02-5.00000E-02
 -1         3 2.50000E-01-6.00000E-02-5.00000E-02
 -1         4 2.50000E-01 6.00000E-02-5.00000E-02
 -1         5 2.50000E-01-6.00000E-02 5.00000E-02
 -1         6 2.50000E-01 6.00000E-02 5.00000E-02
 -1         7-2.50000E-01-6.00000E-02 5.00000E-02
 -1         8-2.50000E-01 6.00000E-02 5.00000E-02
 -1         9-2.50000E-01-2.01228E-16-5.00000E-02
 -1        10-2.50000E-01 3.00000E-02-5.00000E-02
 -1        11-2.50000E-01-3.00000E-02-5.00000E-02
 -1        12-1.87500E-01-6.00000E-02-5.00000E-02
 -1        13-1.25000E-01-6.00000E-02-5.00000E-02
 -1        14-6.25000E-02-6.00000E-02-5.00000E-02
 -1        15 0.00000E+00-6.00000E-02-5.00000E-02
 -1        16 6.25000E-02-6.00000E-02-5.00000E-02
 -1        17 1.25000E-01-6.00000E-02-5.00000E-02
 -1        18 1.87500E-01-6.00000E-02-5.00000E-02
 -1        19-2.18750E-01-6.00000E-02-5.00000E-02
 -1        20-1.56250E-01-6.00000E-02-5.00000E-02
 -1        21-9.37500E-02-6.00000E-02-5.00000E-02
 -1        22-3.12500E-02-6.00000E-02-5.00000E-02
 -1        23 3.12500E-02-6.00000E-02-5.00000E-02
 -1        24 9.37500E-02-6.00000E-02-5.00000E-02
 -1        25 1.56250E-01-6.00000E-02-5.00000E-02
 -1        26 2.18750E-01-6.00000E-02-5.00000E-02
 -1        27 2.50000E-01-2.01228E-16-5.00000E-02
 -1        28 2.50000E-01 3.00000E-02-5.00000E-02
 -1        29 2.50000E-01-3.00000E-02-5.00000E-02
 -1        30-1.87500E-01 6.00000E-02-5.00000E-02
 -1        31-1.25000E-01 6.00000E-02-5.00000E-02
 -1        32-6.25000E-02 6.00000E-02-5.00000E-02
 -1        33 0.00000E+00 6.00000E-02-5.00000E-02
 -1        34 6.25000E-02 6.00000E-02-5.00000E-02
 -1        35 1.25000E-01 6.00000E-02-5.00000E-02
 -1        36 1.87500E-01 6.00000E-02-5.00000E-02
 -1        37-2.18750E-01 6.00000E-02-5.00000E-02
 -1        38-1.56250E-01 6.00000E-02-5.00000E-02
 -1        39-9.37500E-02 6.00000E-02-5.00000E-02
 -1        40-3.12500E-02 6.00000E-02-5.00000E-02
 -1        41 3.12500E-02 6.00000E-02-5.00000E-02
 -1        42 9.37500E-02 6.00000E-02-5.00000E-02
 -1        43 1.56250E-01 6.00000E-02-5.00000E-02
 -1        44 2.18750E-01 6.00000E-02-5.00000E-02
 -1        45 2.50000E-01-6.00000E-02 3.46945E-17
 -1        46 2.50000E-01-6.00000E-02-2.50000E-02
 -1        47 2.50000E-01-6.00000E-02 2.50000E-02
 -1        48 2.50000E-01-2.01228E-16 5.00000E-02
 -1        49 2.50000E-01 3.00000E-02 5.00000E-02
 -1        50 2.50000E-01-3.00000E-02 5.00000E-02
 -1        51 2.50000E-01 6.00000E-02 3.46945E-17
 -1        52 2.50000E-01 6.00000E-02-2.50000E-02
 -1        53 2.50000E-01 6.00000E-02 2.50000E-02
 -1        54 1.87500E-01-6.00000E-02 5.00000E-02
 -1        55 1.25000E-01-6.00000E-02 5.00000E-02
 -1        56 6.25000E-02-6.00000E-02 5.00000E-02
 -1        57 0.00000E+00-6.00000E-02 5.00000E-02
 -1        58-6.25000E-02-6.00000E-02 5.00000E-02
 -1        59-1.25000E-01-6.00000E-02 5.00000E-02
 -1        60-1.87500E-01-6.00000E-02 5.00000E-02
 -1        61 2.18750E-01-6.00000E-02 5.00000E-02
 -1        62 1.56250E-01-6.00000E-02 5.00000E-02
 -1        63 9.37500E-02-6.00000E-02 5.00000E-02
 -1        64 3.12500E-02-6.00000E-02 5.00000E-02
 -1        65-3.12500E-02-6.00000E-02 5.00000E-02
 -1        66-9.37500E-02-6.00000E-02 5.00000E-02
 -1        67-1.56250E-01-6.00000E-02 5.00000E-02
 -1        68-2.18750E-01-6.00000E-02 5.00000E-02
 -1        69-2.50000E-01-2.01228E-16 5.00000E-02
 -1        70-2.50000E-01 3.00000E-02 5.00000E-02
 -1        71-2.50000E-01-3.00000E-02 5.00000E-02
 -1        72 1.87500E-01 6.00000E-02 5.00000E-02
 -1        73 1.25000E-01 6.00000E-02 5.00000E-02
 -1        74 6.25000E-02 6.00000E-02 5.00000E-02
 -1        75 0.00000E+00 6.00000E-02 5.00000E-02
 -1        76-6.25000E-02 6.00000E-02 5.00000E-02
 -1        77-1.25000E-01 6.00000E-02 5.00000E-02
 -1        78-1.87500E-01 6.00000E-02 5.00000E-02
 -1        79 2.18750E-01 6.00000E-02 5.00000E-02
 -1        80 1.56250E-01 6.00000E-02 5.00000E-02
 -1        81 9.37500E-02 6.00000E-02 5.00000E-02
 -1        82 3.12500E-02 6.00000E-02 5.00000E-02
 -1        83-3.12500E-02 6.00000E-02 5.00000E-02
 -1        84-9.37500E-02 6.00000E-02 5.00000E-02
 -1        85-1.56250E-01 6.00000E-02 5.00000E-02
 -1        86-2.18750E-01 6.00000E-02 5.00000E-02
 -1        87-2.50000E-01-6.00000E-02-3.46945E-17
 -1        88-2.50000E-01-6.00000E-02 2.50000E-02
 -1        89-2.50000E-01-6.00000E-02-2.50000E-02
 -1        90-2.50000E-01 6.00000E-02-3.46945E-17
 -1        91-2.50000E-01 6.00000E-02 2.50000E-02
 -1        92-2.50000E-01 6.00000E-02-2.50000E-02
 -1        93-1.87500E-01-2.01228E-16-5.00000E-02
 -1        94-1.25000E-01-2.08167E-16-5.00000E-02
 -1        95-6.25000E-02-2.08167E-16-5.00000E-02
 -1        96 0.00000E+00-2.01228E-16-5.00000E-02
 -1        97 6.25000E-02-1.94289E-16-5.00000E-02
 -1        98 1.25000E-01-2.08167E-16-5.00000E-02
 -1        99 1.87500E-01-2.01228E-16-5.00000E-02
 -1       100-1.87500E-01 3.00000E-02-5.00000E-02
 -1       101-2.18750E-01-2.01228E-16-5.00000E-02
 -1       102-1.25000E-01 3.00000E-02-5.00000E-02
 -1       103-1.56250E-01-2.04697E-16-5.00000E-02
 -1       104-6.25000E-02 3.00000E-02-5.00000E-02
 -1       105-9.37500E-02-2.08167E-16-5.00000E-02
 -1       106 0.00000E+00 3.00000E-02-5.00000E-02
 -1       107-3.12500E-02-2.04697E-16-5.00000E-02
 -1       108 6.25000E-02 3.00000E-02-5.00000E-02
 -1       109 3.12500E-02-1.97758E-16-5.00000E-02
 -1       110 1.25000E-01 3.00000E-02-5.00000E-02
 -1       111 9.37500E-02-2.01228E-16-5.00000E-02
 -1       112 1.87500E-01 3.00000E-02-5.00000E-02
 -1       113 1.56250E-01-2.04697E-16-5.00000E-02
 -1       114 2.18750E-01-2.01228E-16-5.00000E-02
 -1       115-1.87500E-01-3.00000E-02-5.00000E-02
 -1       116-1.25000E-01-3.00000E-02-5.00000E-02
 -1       117-6.25000E-02-3.00000E-02-5.00000E-02
 -1       118 0.00000E+00-3.00000E-02-5.00000E-02
 -1       119 6.25000E-02-3.00000E-02-5.00000E-02
 -1       120 1.25000E-01-3.00000E-02-5.00000E-02
 -1       121 1.87500E-01-3.00000E-02-5.00000E-02
 -1       122 2.50000E-01-1.94289E-16 4.16334E-17
 -1       123 2.50000E-01 3.00000E-02 3.81639E-17
 -1       124 2.50000E-01-1.97758E-16-2.50000E-02
 -1       125 2.50000E-01-1.97758E-16 2.50000E-02
 -1       126 2.50000E-01-3.00000E-02 3.81639E-17
 -1       127 1.87500E-01-2.01228E-16 5.00000E-02
 -1       128 1.25000E-01-2.08167E-16 5.00000E-02
 -1       129 6.25000E-02-2.08167E-16 5.00000E-02
 -1       130 0.00000E+00-2.01228E-16 5.00000E-02
 -1       131-6.25000E-02-1.94289E-16 5.00000E-02
 -1       132-1.25000E-01-2.08167E-16 5.00000E-02
 -1       133-1.87500E-01-2.01228E-16 5.00000E-02
 -1       134 1.87500E-01 3.00000E-02 5.00000E-02
 -1       135 2.18750E-01-2.01228E-16 5.00000E-02
 -1       136 1.25000E-01 3.00000E-02 5.00000E-02
 -1       137 1.56250E-01-2.04697E-16 5.00000E-02
 -1       138 6.25000E-02 3.00000E-02 5.00000E-02
 -1       139 9.37500E-02-2.08167E-16 5.00000E-02
 -1       140 0.00000E+00 3.00000E-02 5.00000E-02
 -1       141 3.12500E-02-2.04697E-16 5.00000E-02
 -1       142-6.25000E-02 3.00000E-02 5.00000E-02
 -1       143-3.12500E-02-1.97758E-16 5.00000E-02
 -1       144-1.25000E-01 3.00000E-02 5.00000E-02
 -1       145-9.37500E-02-2.01228E-16 5.00000E-02
 -1       146-1.87500E-01 3.00000E-02 5.00000E-02
 -1       147-1.56250E-01-2.04697E-16 5.00000E-02
 -1       148-2.18750E-01-2.01228E-16 5.00000E-02
 -1       149 1.87500E-01-3.00000E-02 5.00000E-02
 -1       150 1.25000E-01-3.00000E-02 5.00000E-02
 -1       151 6.25000E-02-3.00000E-02 5.00000E-02
 -1       152 0.00000E+00-3.00000E-02 5.00000E-02
 -1       153-6.25000E-02-3.00000E-02 5.00000E-02
 -1       154-1.25000E-01-3.00000E-02 5.00000E-02
 -1       155-1.87500E-01-3.00000E-02 5.00000E-02
 -1       156-2.50000E-01-2.15106E-16-3.46945E-17
 -1       157-2.50000E-01 3.00000E-02-3.46945E-17
 -1       158-2.50000E-01-2.08167E-16 2.50000E-02
 -1       159-2.50000E-01-2.08167E-16-2.50000E-02
 -1       160-2.50000E-01-3.00000E-02-3.46945E-17
 -1       161-1.87500E-01 6.00000E-02-2.42861E-17
 -1       162-1.25000E-01 6.00000E-02-1.73472E-17
 -1       163-6.25000E-02 6.00000E-02-1.04083E-17
 -1       164-5.78241E-18 6.00000E-02 4.45737E-30
 -1       165 6.25000E-02 6.00000E-02 6.93889E-18
 -1       166 1.25000E-01 6.00000E-02 1.73472E-17
 -1       167 1.87500E-01 6.00000E-02 2.60209E-17
 -1       168-1.87500E-01 6.00000E-02 2.50000E-02
 -1       169-2.18750E-01 6.00000E-02-2.94903E-17
 -1       170-1.25000E-01 6.00000E-02 2.50000E-02
 -1       171-1.56250E-01 6.00000E-02-2.08167E-17
 -1       172-6.25000E-02 6.00000E-02 2.50000E-02
 -1       173-9.37500E-02 6.00000E-02-1.38778E-17
 -1       174-2.89121E-18 6.00000E-02 2.50000E-02
 -1       175-3.12500E-02 6.00000E-02-5.20417E-18
 -1       176 6.25000E-02 6.00000E-02 2.50000E-02
 -1       177 3.12500E-02 6.00000E-02 3.46945E-18
 -1       178 1.25000E-01 6.00000E-02 2.50000E-02
 -1       179 9.37500E-02 6.00000E-02 1.21431E-17
 -1       180 1.87500E-01 6.00000E-02 2.50000E-02
 -1       181 1.56250E-01 6.00000E-02 2.16840E-17
 -1       182 2.18750E-01 6.00000E-02 3.03577E-17
 -1       183-1.87500E-01 6.00000E-02-2.50000E-02
 -1       184-1.25000E-01 6.00000E-02-2.50000E-02
 -1       185-6.25000E-02 6.00000E-02-2.50000E-02
 -1       186-2.89121E-18 6.00000E-02-2.50000E-02
 -1       187 6.25000E-02 6.00000E-02-2.50000E-02
 -1       188 1.25000E-01 6.00000E-02-2.50000E-02
 -1       189 1.87500E-01 6.00000E-02-2.50000E-02
 -1       190-1.87500E-01-6.00000E-02-2.77556E-17
 -1       191-1.25000E-01-6.00000E-02-1.73472E-17
 -1       192-6.25000E-02-6.00000E-02-6.93889E-18
 -1       193-5.78241E-18-6.00000E-02-4.45737E-30
 -1       194 6.25000E-02-6.00000E-02 1.21431E-17
 -1       195 1.25000E-01-6.00000E-02 1.73472E-17
 -1       196 1.87500E-01-6.00000E-02 2.25514E-17
 -1       197-2.18750E-01-6.00000E-02-3.12250E-17
 -1       198-1.87500E-01-6.00000E-02 2.50000E-02
 -1       199-1.56250E-01-6.00000E-02-2.25514E-17
 -1       200-1.25000E-01-6.00000E-02 2.50000E-02
 -1       201-9.37500E-02-6.00000E-02-1.21431E-17
 -1       202-6.25000E-02-6.00000E-02 2.50000E-02
 -1       203-3.12500E-02-6.00000E-02-3.46945E-18
 -1       204-2.89121E-18-6.00000E-02 2.50000E-02
 -1       205 3.12500E-02-6.00000E-02 6.07153E-18
 -1       206 6.25000E-02-6.00000E-02 2.50000E-02
 -1       207 9.37500E-02-6.00000E-02 1.47451E-17
 -1       208 1.25000E-01-6.00000E-02 2.50000E-02
 -1       209 1.56250E-01-6.00000E-02 1.99493E-17
 -1       210 1.87500E-01-6.00000E-02 2.50000E-02
 -1       211 2.18750E-01-6.00000E-02 2.86229E-17
 -1       212-1.87500E-01-6.00000E-02-2.50000E-02
 -1       213-1.25000E-01-6.00000E-02-2.50000E-02
 -1       214-6.25000E-02-6.00000E-02-2.50000E-02
 -1       215-2.89121E-18-6.00000E-02-2.50000E-02
 -1       216 6.25000E-02-6.00000E-02-2.50000E-02
 -1       217 1.25000E-01-6.00000E-02-2.50000E-02
 -1       218 1.87500E-01-6.00000E-02-2.50000E-02
 -1       219-1.87500E-01-2.01662E-16-2.21177E-17
 -1       220-1.25000E-01-2.05565E-16-1.47451E-17
 -1       221-6.25000E-02-2.03830E-16-6.93889E-18
 -1       222 0.00000E+00-2.04697E-16 1.73472E-18
 -1       223 6.25000E-02-2.06432E-16 1.38778E-17
 -1       224 1.25000E-01-2.09902E-16 2.08167E-17
 -1       225 1.87500E-01-2.08167E-16 3.46945E-17
 -1       226-1.87500E-01-2.01445E-16-2.50000E-02
 -1       227-2.18750E-01-2.08384E-16-2.84061E-17
 -1       228-1.87500E-01 3.00000E-02-2.32019E-17
 -1       229-1.87500E-01-2.01445E-16 2.50000E-02
 -1       230-1.25000E-01-2.06866E-16-2.50000E-02
 -1       231-1.56250E-01-2.03613E-16-1.84314E-17
 -1       232-1.25000E-01 3.00000E-02-1.60462E-17
 -1       233-1.25000E-01-2.06866E-16 2.50000E-02
 -1       234-6.25000E-02-2.05998E-16-2.50000E-02
 -1       235-9.37500E-02-2.04697E-16-1.08420E-17
 -1       236-6.25000E-02 3.00000E-02-8.67362E-18
 -1       237-6.25000E-02-1.99060E-16 2.50000E-02
 -1       238 0.00000E+00-2.02963E-16-2.50000E-02
 -1       239-3.12500E-02-2.04264E-16-2.60209E-18
 -1       240-2.89121E-18 3.00000E-02 8.67362E-19
 -1       241 0.00000E+00-2.02963E-16 2.50000E-02
 -1       242 6.25000E-02-2.00361E-16-2.50000E-02
 -1       243 3.12500E-02-2.05565E-16 7.80626E-18
 -1       244 6.25000E-02 3.00000E-02 1.04083E-17
 -1       245 6.25000E-02-2.07299E-16 2.50000E-02
 -1       246 1.25000E-01-2.09034E-16-2.50000E-02
 -1       247 9.37500E-02-2.08167E-16 1.73472E-17
 -1       248 1.25000E-01 3.00000E-02 1.90820E-17
 -1       249 1.25000E-01-2.09034E-16 2.50000E-02
 -1       250 1.87500E-01-2.04697E-16-2.50000E-02
 -1       251 1.56250E-01-2.09034E-16 2.77556E-17
 -1       252 1.87500E-01 3.00000E-02 3.03577E-17
 -1       253 1.87500E-01-2.04697E-16 2.50000E-02
 -1       254 2.18750E-01-2.01228E-16 3.81639E-17
 -1       255-1.87500E-01-3.00000E-02-2.49366E-17
 -1       256-1.25000E-01-3.00000E-02-1.60462E-17
 -1       257-6.25000E-02-3.00000E-02-6.93889E-18
 -1       258-2.89121E-18-3.00000E-02 8.67362E-19
 -1       259 6.25000E-02-3.00000E-02 1.30104E-17
 -1       260 1.25000E-01-3.00000E-02 1.90820E-17
 -1       261 1.87500E-01-3.00000E-02 2.86229E-17
 -3
    3C                            32                                     1
 -1         1    4    0    1
 -2         1         9        93        30        90       156       219       161        10       101
 -2       100        37        92       159       226       183       157       227       228       169
 -1         2    4    0    1
 -2        90       156       219       161         8        69       133        78       157       227
 -2       228       169        91       158       229       168        70       148       146        86
 -1         3    4    0    1
 -2        30        93        94        31       161       219       220       162       100       103
 -2       102        38       183       226       230       184       228       231       232       171
 -1         4    4    0    1
 -2       161       219       220       162        78       133       132        77       228       231
 -2       232       171       168       229       233       170       146       147       144        85
 -1         5    4    0    1
 -2        31        94        95        32       162       220       221       163       102       105
 -2       104        39       184       230       234       185       232       235       236       173
 -1         6    4    0    1
 -2       162       220       221       163        77       132       131        76       232       235
 -2       236       173       170       233       237       172       144       145       142        84
 -1         7    4    0    1
 -2        32        95        96        33       163       221       222       164       104       107
 -2       106        40       185       234       238       186       236       239       240       175
 -1         8    4    0    1
 -2       163       221       222       164        76       131       130        75       236       239
 -2       240       175       172       237       241       174       142       143       140        83
 -1         9    4    0    1
 -2        33        96        97        34       164       222       223       165       106       109
 -2       108        41       186       238       242       187       240       243       244       177
 -1        10    4    0    1
 -2       164       222       223       165        75       130       129        74       240       243
 -2       244       177       174       241       245       176       140       141       138        82
 -1        11    4    0    1
 -2        34        97        98        35       165       223       224       166       108       111
 -2       110        42       187       242       246       188       244       247       248       179
 -1        12    4    0    1
 -2       165       223       224       166        74       129       128        73       244       247
 -2       248       179       176       245       249       178       138       139       136        81
 -1        13    4    0    1
 -2        35        98        99        36       166       224       225       167       110       113
 -2       112        43       188       246       250       189       248       251       252       181
 -1        14    4    0    1
 -2       166       224       225       167        73       128       127        72       248       251
 -2       252       181       178       249       253       180       136       137       134        80
 -1        15    4    0    1
 -2        36        99        27         4       167       225       122        51       112       114
 -2        28        44       189       250       124        52       252       254       123       182
 -1        16    4    0    1
 -2       167       225       122        51        72       127        48         6       252       254
 -2       123       182       180       253       125        53       134       135        49        79
 -1        17    4    0    1
 -2         9         2        12        93       156        87       190       219        11        19
 -2       115       101       159        89       212       226       160       197       255       227
 -1        18    4    0    1
 -2       156        87       190       219        69         7        60       133       160       197
 -2       255       227       158        88       198       229        71        68       155       148
 -1        19    4    0    1
 -2        93        12        13        94       219       190       191       220       115        20
 -2       116       103       226       212       213       230       255       199       256       231
 -1        20    4    0    1
 -2       219       190       191       220       133        60        59       132       255       199
 -2       256       231       229       198       200       233       155        67       154       147
 -1        21    4    0    1
 -2        94        13        14        95       220       191       192       221       116        21
 -2       117       105       230       213       214       234       256       201       257       235
 -1        22    4    0    1
 -2       220       191       192       221       132        59        58       131       256       201
 -2       257       235       233       200       202       237       154        66       153       145
 -1        23    4    0    1
 -2        95        14        15        96       221       192       193       222       117        22
 -2       118       107       234       214       215       238       257       203       258       239
 -1        24    4    0    1
 -2       221       192       193       222       131        58        57       130       257       203
 -2       258       239       237       202       204       241       153        65       152       143
 -1        25    4    0    1
 -2        96        15        16        97       222       193       194       223       118        23
 -2       119       109       238       215       216       242       258       205       259       243
 -1        26    4    0    1
 -2       222       193       194       223       130        57        56       129       258       205
 -2       259       243       241       204       206       245       152        64       151       141
 -1        27    4    0    1
 -2        97        16        17        98       223       194       195       224       119        24
 -2       120       111       242       216       217       246       259       207       260       247
 -1        28    4    0    1
 -2       223       194       195       224       129        56        55       128       259       207
 -2       260       247       245       206       208       249       151        63       150       139
 -1        29    4    0    1
 -2        98        17        18        99       224       195       196       225       120        25
 -2       121       113       246       217       218       250       260       209       261       251
 -1        30    4    0    1
 -2       224       195       196       225       128        55        54       127       260       209
 -2       261       251       249       208       210       253       150        62       149       137
 -1        31    4    0    1
 -2        99        18         3        27       225       196        45       122       121        26
 -2        29       114       250       218        46       124       261       211       126       254
 -1        32    4    0    1
 -2       225       196        45       122       127        54         5        48       261       211
 -2       126       254       253       210        47       125       149        61        50       135
 -3
    1PSTEP                         1           1           1          
  100CL  101 1.000000000         261                     0    1           1
 -4  DISP        4    1
 -5  D1          1    2    1    0
 -5  D2          1    2    2    0
 -5  D3          1    2    3    0
 -5  ALL         1    2    0    0    1ALL
 -1         1 0.00000E+00 0.00000E+00 0.00000E+00
 -1         2 0.00000E+00 0.00000E+00 0.00000E+00
 -1         3-2.45943E-06-1.41035E-05-1.11572E-08
 -1         4 2.45619E-06-1.41035E-05-1.21077E-08
 -1         5-2.45611E-06-1.41034E-05-1.19705E-08
 -1         6 2.45954E-06-1.41034E-05-1.12836E-08
 -1         7 0.00000E+00 0.00000E+00 0.00000E+00
 -1         8 0.00000E+00 0.00000E+00 0.00000E+00
 -1         9 0.00000E+00 0.00000E+00 0.00000E+00
 -1        10 0.00000E+00 0.00000E+00 0.00000E+00
 -1        11 0.00000E+00 0.00000E+00 0.00000E+00
 -1        12-5.60018E-07-3.64927E-07-1.17217E-07
 -1        13-1.06066E-06-1.27657E-06-1.05201E-07
 -1        14-1.48593E-06-2.67397E-06-8.88839E-08
 -1        15-1.83531E-06-4.47340E-06-7.31717E-08
 -1        16-2.10665E-06-6.59626E-06-5.75842E-08
 -1        17-2.30052E-06-8.96120E-06-4.21557E-08
 -1        18-2.41701E-06-1.14877E-05-2.70647E-08
 -1        19-2.81092E-07-1.24687E-07-1.08776E-07
 -1        20-8.19932E-07-7.56625E-07-1.13075E-07
 -1        21-1.28232E-06-1.92011E-06-9.70007E-08
 -1        22-1.67027E-06-3.52820E-06-8.09831E-08
 -1        23-1.98048E-06-5.49953E-06-6.53511E-08
 -1        24-2.21313E-06-7.75349E-06-4.98576E-08
 -1        25-2.36826E-06-1.02092E-05-3.45399E-08
 -1        26-2.44675E-06-1.27856E-05-2.01392E-08
 -1        27-1.62810E-09-1.40879E-05-1.16525E-08
 -1        28 1.21261E-06-1.40952E-05-1.38807E-08
 -1        29-1.21586E-06-1.40952E-05-9.39487E-09
 -1        30 5.59318E-07-3.64745E-07 1.16747E-07
 -1        31 1.05925E-06-1.27638E-06 1.03258E-07
 -1        32 1.48390E-06-2.67383E-06 8.45789E-08
 -1        33 1.83280E-06-4.47330E-06 6.57971E-08
 -1        34 2.10378E-06-6.59617E-06 4.66271E-08
 -1        35 2.29743E-06-8.96114E-06 2.72863E-08
 -1        36 2.41380E-06-1.14877E-05 8.03517E-09
 -1        37 2.80761E-07-1.24533E-07 1.08647E-07
 -1        38 8.18862E-07-7.56437E-07 1.11986E-07
 -1        39 1.28060E-06-1.91995E-06 9.39769E-08
 -1        40 1.66796E-06-3.52808E-06 7.52274E-08
 -1        41 1.97780E-06-5.49944E-06 5.62411E-08
 -1        42 2.21013E-06-7.75342E-06 3.69758E-08
 -1        43 2.36510E-06-1.02092E-05 1.76014E-08
 -1        44 2.44351E-06-1.27856E-05-1.02577E-09
 -1        45-2.46385E-06-1.41068E-05-1.15662E-08
 -1        46-2.46385E-06-1.41059E-05-1.17352E-08
 -1        47-2.46218E-06-1.41058E-05-1.13924E-08
 -1        48 1.72757E-09-1.40878E-05-1.16366E-08
 -1        49 1.21596E-06-1.40951E-05-9.44990E-09
 -1        50-1.21252E-06-1.40951E-05-1.38122E-08
 -1        51 2.46398E-06-1.41068E-05-1.16863E-08
 -1        52 2.46229E-06-1.41059E-05-1.15205E-08
 -1        53 2.46396E-06-1.41058E-05-1.18597E-08
 -1        54-2.41370E-06-1.14876E-05 8.12183E-09
 -1        55-2.29736E-06-8.96114E-06 2.72829E-08
 -1        56-2.10369E-06-6.59620E-06 4.65983E-08
 -1        57-1.83269E-06-4.47333E-06 6.57649E-08
 -1        58-1.48380E-06-2.67383E-06 8.45788E-08
 -1        59-1.05918E-06-1.27635E-06 1.03302E-07
 -1        60-5.59290E-07-3.64718E-07 1.16751E-07
 -1        61-2.44343E-06-1.27855E-05-9.05394E-10
 -1        62-2.36501E-06-1.02092E-05 1.76584E-08
 -1        63-2.21005E-06-7.75345E-06 3.69488E-08
 -1        64-1.97770E-06-5.49948E-06 5.62079E-08
 -1        65-1.66786E-06-3.52809E-06 7.51965E-08
 -1        66-1.28053E-06-1.91994E-06 9.39984E-08
 -1        67-8.18812E-07-7.56397E-07 1.12020E-07
 -1        68-2.80746E-07-1.24520E-07 1.08638E-07
 -1        69 0.00000E+00 0.00000E+00 0.00000E+00
 -1        70 0.00000E+00 0.00000E+00 0.00000E+00
 -1        71 0.00000E+00 0.00000E+00 0.00000E+00
 -1        72 2.41713E-06-1.14876E-05-2.71857E-08
 -1        73 2.30067E-06-8.96119E-06-4.21844E-08
 -1        74 2.10674E-06-6.59628E-06-5.75497E-08
 -1        75 1.83540E-06-4.47345E-06-7.31329E-08
 -1        76 1.48600E-06-2.67398E-06-8.88714E-08
 -1        77 1.06074E-06-1.27652E-06-1.05257E-07
 -1        78 5.60093E-07-3.64918E-07-1.17253E-07
 -1        79 2.44686E-06-1.27855E-05-2.02562E-08
 -1        80 2.36839E-06-1.02092E-05-3.46128E-08
 -1        81 2.21325E-06-7.75349E-06-4.98394E-08
 -1        82 1.98059E-06-5.49957E-06-6.53110E-08
 -1        83 1.67033E-06-3.52823E-06-8.09498E-08
 -1        84 1.28242E-06-1.92010E-06-9.70267E-08
 -1        85 8.20003E-07-7.56597E-07-1.13125E-07
 -1        86 2.81148E-07-1.24689E-07-1.08791E-07
 -1        87 0.00000E+00 0.00000E+00 0.00000E+00
 -1        88 0.00000E+00 0.00000E+00 0.00000E+00
 -1        89 0.00000E+00 0.00000E+00 0.00000E+00
 -1        90 0.00000E+00 0.00000E+00 0.00000E+00
 -1        91 0.00000E+00 0.00000E+00 0.00000E+00
 -1        92 0.00000E+00 0.00000E+00 0.00000E+00
 -1        93-3.51964E-10-3.00560E-07-2.89291E-10
 -1        94-7.05845E-10-1.21460E-06-1.03152E-09
 -1        95-1.01281E-09-2.62167E-06-2.19244E-09
 -1        96-1.25307E-09-4.43174E-06-3.71294E-09
 -1        97-1.43131E-09-6.56497E-06-5.49931E-09
 -1        98-1.53911E-09-8.94033E-06-7.45271E-09
 -1        99-1.61478E-09-1.14770E-05-9.52644E-09
 -1       100 2.68956E-07-3.09094E-07 5.83569E-08
 -1       101-1.64297E-10-4.82563E-08-1.02801E-10
 -1       102 5.17797E-07-1.23131E-06 5.12453E-08
 -1       103-5.31951E-10-6.89146E-07-6.05744E-10
 -1       104 7.30839E-07-2.63438E-06 4.11975E-08
 -1       105-8.63063E-10-1.86252E-06-1.56296E-09
 -1       106 9.04932E-07-4.44219E-06 3.10217E-08
 -1       107-1.14610E-09-3.48129E-06-2.91120E-09
 -1       108 1.04040E-06-6.57274E-06 2.05684E-08
 -1       109-1.34004E-09-5.46303E-06-4.58166E-09
 -1       110 1.13715E-06-8.94552E-06 9.89833E-09
 -1       111-1.50484E-09-7.72742E-06-6.45779E-09
 -1       112 1.19520E-06-1.14798E-05-7.57206E-10
 -1       113-1.57839E-09-1.01937E-05-8.47783E-09
 -1       114-1.62628E-09-1.27821E-05-1.05854E-08
 -1       115-2.69662E-07-3.09177E-07-5.89188E-08
 -1       116-5.19216E-07-1.23140E-06-5.32782E-08
 -1       117-7.32866E-07-2.63445E-06-4.55632E-08
 -1       118-9.07447E-07-4.44224E-06-3.84416E-08
 -1       119-1.04326E-06-6.57278E-06-3.15407E-08
 -1       120-1.14024E-06-8.94555E-06-2.47997E-08
 -1       121-1.19842E-06-1.14798E-05-1.82878E-08
 -1       122 5.27201E-11-1.40905E-05-1.16439E-08
 -1       123 1.21866E-06-1.40982E-05-1.16581E-08
 -1       124-7.79096E-10-1.40888E-05-1.16527E-08
 -1       125 8.96344E-10-1.40888E-05-1.16374E-08
 -1       126-1.21856E-06-1.40982E-05-1.16060E-08
 -1       127 1.72373E-09-1.14769E-05-9.54193E-09
 -1       128 1.66013E-09-8.94030E-06-7.46453E-09
 -1       129 1.52971E-09-6.56498E-06-5.49478E-09
 -1       130 1.35319E-09-4.43177E-06-3.72169E-09
 -1       131 1.10621E-09-2.62168E-06-2.19049E-09
 -1       132 7.82354E-10-1.21458E-06-1.02523E-09
 -1       133 4.00632E-10-3.00545E-07-3.05955E-10
 -1       134 1.19855E-06-1.14797E-05-1.83505E-08
 -1       135 1.73071E-09-1.27820E-05-1.05882E-08
 -1       136 1.14037E-06-8.94553E-06-2.48135E-08
 -1       137 1.70107E-09-1.01936E-05-8.49147E-09
 -1       138 1.04336E-06-6.57279E-06-3.15334E-08
 -1       139 1.61056E-09-7.72742E-06-6.45750E-09
 -1       140 9.07542E-07-4.44227E-06-3.84241E-08
 -1       141 1.44404E-09-5.46305E-06-4.57995E-09
 -1       142 7.32946E-07-2.63446E-06-4.55646E-08
 -1       143 1.24009E-09-3.48131E-06-2.92088E-09
 -1       144 5.19285E-07-1.23137E-06-5.32947E-08
 -1       145 9.53279E-10-1.86251E-06-1.55822E-09
 -1       146 2.69717E-07-3.09166E-07-5.89421E-08
 -1       147 5.99288E-10-6.89123E-07-6.10005E-10
 -1       148 1.87282E-10-4.82504E-08-1.16835E-10
 -1       149-1.19511E-06-1.14797E-05-7.20960E-10
 -1       150-1.13705E-06-8.94551E-06 9.90179E-09
 -1       151-1.04030E-06-6.57276E-06 2.05566E-08
 -1       152-9.04837E-07-4.44221E-06 3.10041E-08
 -1       153-7.30740E-07-2.63438E-06 4.11963E-08
 -1       154-5.17725E-07-1.23129E-06 5.12598E-08
 -1       155-2.68920E-07-3.09069E-07 5.83566E-08
 -1       156 0.00000E+00 0.00000E+00 0.00000E+00
 -1       157 0.00000E+00 0.00000E+00 0.00000E+00
 -1       158 0.00000E+00 0.00000E+00 0.00000E+00
 -1       159 0.00000E+00 0.00000E+00 0.00000E+00
 -1       160 0.00000E+00 0.00000E+00 0.00000E+00
 -1       161 5.62096E-07-4.15153E-07-2.14608E-10