    1C
    1UHash: v5AunGqV, Date: 01/14/2026, Unit system: M_KG_S_C           
    1UUSER                                                              
    1UDATE              17.january.2026                                 
    1UTIME              12:56:28                                        
    1UHOST                                                              
    1UPGM               CalculiX                                        
    1UVERSION           Version 2.23                             
    1UCOMPILETIME       Sun Jan 11 00:39:44 CET 2026                    
    1UDIR                                                               
    1UDBN                                                               
    1UMAT    1S235                                                      
    2C                            32                                     1
 -1         1-2.50000E-01 6.00000E-02-5.00000E-02
 -1         2-2.50000E-01-6.00000E-02-5.00000E-02
 -1         3 2.50000E-01-6.00000E-02-5.00000E-02
 -1         4 2.50000E-01 6.00000E-02-5.00000E-02
 -1         5 2.50000E-01-6.00000E-02 5.00000E-02
 -1         6 2.50000E-01 6.00000E-02 5.00000E-02
 -1         7-2.50000E-01-6.00000E-02 5.00000E-02
 -1         8-2.50000E-01 6.00000E-02 5.00000E-02
 -1         9-2.50000E-01 0.00000E+00-5.00000E-02
 -1        10 0.00000E+00-6.00000E-02-5.00000E-02
 -1        11-1.25000E-01-6.00000E-02-5.00000E-02
 -1        12 1.25000E-01-6.00000E-02-5.00000E-02
 -1        13 2.50000E-01 0.00000E+00-5.00000E-02
 -1        14 0.00000E+00 6.00000E-02-5.00000E-02
 -1        15-1.25000E-01 6.00000E-02-5.00000E-02
 -1        16 1.25000E-01 6.00000E-02-5.00000E-02
 -1        17 2.50000E-01-6.00000E-02 0.00000E+00
 -1        18 2.50000E-01 0.00000E+00 5.00000E-02
 -1        19 2.50000E-01 6.00000E-02 0.00000E+00
 -1        20 0.00000E+00-6.00000E-02 5.00000E-02
 -1        21 1.25000E-01-6.00000E-02 5.00000E-02
 -1        22-1.25000E-01-6.00000E-02 5.00000E-02
 -1        23-2.50000E-01 0.00000E+00 5.00000E-02
 -1        24 0.00000E+00 6.00000E-02 5.00000E-02
 -1        25 1.25000E-01 6.00000E-02 5.00000E-02
 -1        26-1.25000E-01 6.00000E-02 5.00000E-02
 -1        27-2.50000E-01-6.00000E-02 0.00000E+00
 -1        28-2.50000E-01 6.00000E-02 0.00000E+00
 -1        29 0.00000E+00 0.00000E+00-5.00000E-02
 -1        30 0.00000E+00 0.00000E+00 5.00000E-02
 -1        31 0.00000E+00 6.00000E-02 0.00000E+00
 -1        32 0.00000E+00-6.00000E-02 0.00000E+00
 -3
    3C                             2                                     1
 -1         1    4    0    1
 -2         1         2        10        14         8         7        20        24         9        11
 -2        29        15        28        27        32        31        23        22        30        26
 -1         2    4    0    1
 -2        14        10         3         4        24        20         5         6        29        12
 -2        13        16        31        32        17        19        30        21        18        25
 -3
    1PSTEP                         1           1           1          
  100CL  101 1.000000000          32                     0    1           1
 -4  DISP        4    1
 -5  D1          1    2    1    0
 -5  D2          1    2    2    0
 -5  D3          1    2    3    0
 -5  ALL         1    2    0    0    1ALL
 -1         1 0.00000E+00 0.00000E+00 0.00000E+00
 -1         2 0.00000E+00 0.00000E+00 0.00000E+00
 -1         3-2.36931E-06-1.31821E-05-1.40912E-08
 -1         4 2.36819E-06-1.31821E-05 5.10710E-09
 -1         5-2.36808E-06-1.31825E-05 4.67464E-09
 -1         6 2.36942E-06-1.31825E-05-1.36366E-08
 -1         7 0.00000E+00 0.00000E+00 0.00000E+00
 -1         8 0.00000E+00 0.00000E+00 0.00000E+00
 -1         9 0.00000E+00 0.00000E+00 0.00000E+00
 -1        10-1.72536E-06-4.05344E-06-5.13975E-08
 -1        11-9.28646E-07-1.12603E-06-1.20223E-07
 -1        12-2.17383E-06-8.28443E-06-3.82366E-08
 -1        13-5.48212E-10-1.31900E-05-4.48416E-09
 -1        14 1.72448E-06-4.05342E-06 4.83733E-08
 -1        15 9.28173E-07-1.12596E-06 1.19363E-07
 -1        16 2.17278E-06-8.28446E-06 3.23314E-08
 -1        17-2.36962E-06-1.31777E-05-4.70604E-09
 -1        18 6.67566E-10-1.31903E-05-4.47003E-09
 -1        19 2.36974E-06-1.31777E-05-4.26723E-09
 -1        20-1.72432E-06-4.05367E-06 4.80631E-08
 -1        21-2.17263E-06-8.28482E-06 3.18858E-08
 -1        22-9.28001E-07-1.12606E-06 1.19209E-07
 -1        23 0.00000E+00 0.00000E+00 0.00000E+00
 -1        24 1.72550E-06-4.05370E-06-5.10733E-08
 -1        25 2.17395E-06-8.28482E-06-3.77950E-08
 -1        26 9.28701E-07-1.12618E-06-1.20086E-07
 -1        27 0.00000E+00 0.00000E+00 0.00000E+00
 -1        28 0.00000E+00 0.00000E+00 0.00000E+00
 -1        29-4.54751E-10-3.98982E-06-1.52668E-09
 -1        30 5.88631E-10-3.99007E-06-1.52331E-09
 -1        31 1.73173E-06-4.09694E-06-1.33597E-09
 -1        32-1.73160E-06-4.09695E-06-1.65399E-09
 -3
    1PSTEP                         2           1           1          
  100CL  101 1.000000000          32                     0    1           1
 -4  STRESS      6    1
 -5  SXX         1    4    1    1
 -5  SYY         1    4    2    2
 -5  SZZ         1    4    3    3
 -5  SXY         1    4    1    2
 -5  SYZ         1    4    2    3
 -5  SZX         1    4    3    1
 -1         1 2.13508E+06 8.30309E+05 8.30308E+05-1.47787E+05 5.39219E-01 1.40792E+05
 -1         2-2.13616E+06-8.30730E+05-8.30729E+05-1.47874E+05 5.39604E-01-1.40928E+05
 -1         3-1.55840E+05-1.08154E+05-3.44913E+04-1.94337E+05 2.79887E+04 1.74357E+04
 -1         4 1.55857E+05 1.08247E+05 3.45667E+04-1.94335E+05 2.79730E+04-1.74676E+04
 -1         5-1.55898E+05-1.08128E+05-3.45378E+04-1.94293E+05-2.79254E+04-1.74419E+04
 -1         6 1.55843E+05 1.08185E+05 3.45873E+04-1.94274E+05-2.80167E+04 1.73749E+04
 -1         7-2.13451E+06-8.30090E+05-8.30088E+05-1.47833E+05-5.39097E-01 1.40692E+05
 -1         8 2.13625E+06 8.30765E+05 8.30764E+05-1.47988E+05-5.39744E-01-1.40855E+05
 -1         9-5.53377E+02-2.15203E+02-2.15203E+02-1.26965E+05 5.39394E-01-7.28546E+01
 -1        10-1.07686E+06 1.27946E+05-5.67154E+04-1.76741E+05-7.44121E+04 3.48053E+04
 -1        11-1.49205E+06-1.85734E+05 3.30853E+04-6.07467E+04 9.25451E+04-2.74199E+04
 -1        12-5.21254E+05 5.37951E+04 1.64342E+04-2.40447E+04-1.57171E+04 6.30140E+02
 -1        13 3.80366E+01 6.00923E+01 5.60634E+01-2.17791E+05 2.79878E+04-2.13485E+01
 -1        14 1.07639E+06-1.27956E+05 5.68385E+04-1.76750E+05-7.43289E+04-3.49829E+04
 -1        15 1.49127E+06 1.85726E+05-3.32287E+04-6.07062E+04 9.24470E+04 2.73718E+04
 -1        16 5.20994E+05-5.39929E+04-1.64573E+04-2.40492E+04-1.56298E+04-6.34933E+02
 -1        17-1.49596E+05-1.05684E+05-3.20704E+04-1.77303E+05 2.83973E+01-6.70580E+00
 -1        18-2.48780E+01 3.14764E+01 3.25896E+01-2.17737E+05-2.79640E+04-3.67178E+01
 -1        19 1.49616E+05 1.05809E+05 3.21574E+04-1.77295E+05-2.51381E+01-5.17657E+01
 -1        20-1.07647E+06 1.27951E+05-5.68276E+04-1.76913E+05 7.43777E+04-3.50483E+04
 -1        21-5.21065E+05 5.39441E+04 1.63990E+04-2.41111E+04 1.56544E+04-6.55427E+02
 -1        22-1.49115E+06-1.85780E+05 3.32138E+04-6.08885E+04-9.24356E+04 2.73834E+04
 -1        23 8.66627E+02 3.37020E+02 3.37021E+02-1.27044E+05-5.39438E-01-8.73746E+01
 -1        24 1.07695E+06-1.27939E+05 5.67642E+04-1.76820E+05 7.43841E+04 3.49484E+04
 -1        25 5.21180E+05-5.39257E+04-1.64831E+04-2.40823E+04 1.56653E+04 6.56496E+02
 -1        26 1.49213E+06 1.85637E+05-3.31303E+04-6.08923E+04-9.25721E+04-2.73905E+04
 -1        27-2.14259E+06-8.33231E+05-8.33230E+05-1.62100E+05 2.28538E-04-1.13684E+02
 -1        28 2.14291E+06 8.33354E+05 8.33353E+05-1.62130E+05-2.87308E-04-2.68507E+01
 -1        29-2.33243E+02-6.03352E+00 5.45330E+01-1.78040E+05-7.43677E+04-7.96212E+01
 -1        30 2.31943E+02 1.68134E+00-4.19594E+01-1.78160E+05 7.43837E+04-4.02138E+01
 -1        31 1.07718E+06-1.27720E+05 5.70088E+04-1.66806E+05 2.81748E+01-1.76508E+01
 -1        32-1.07715E+06 1.27789E+05-5.69512E+04-1.66850E+05-1.66575E+01-1.21143E+02
 -3
    1PSTEP                         3           1           1          
  100CL  101 1.000000000          32                     0    1           1
 -4  TOSTRAIN    6    1
 -5  EXX         1    4    1    1
 -5  EYY         1    4    2    2
 -5  EZZ         1    4    3    3
 -5  EXY         1    4    1    2
 -5  EYZ         1    4    2    3
 -5  EZX         1    4    3    1
 -1         1 7.95289E-06 3.92883E-12-4.03733E-12-9.00798E-07 3.28667E-12 8.58161E-07
 -1         2-7.95692E-06-3.91754E-12 4.03891E-12-9.01324E-07 3.28902E-12-8.58990E-07
 -1         3-5.51903E-07-2.61243E-07 1.87748E-07-1.18453E-06 1.70598E-07 1.06275E-07
 -1         4 5.51760E-07 2.61565E-07-1.87537E-07-1.18452E-06 1.70502E-07-1.06469E-07
 -1         5-5.52150E-07-2.60979E-07 1.87568E-07-1.18426E-06-1.70212E-07-1.06312E-07
 -1         6 5.51748E-07 2.61258E-07-1.87336E-07-1.18415E-06-1.70769E-07 1.05904E-07
 -1         7-7.95078E-06-3.92072E-12 4.04104E-12-9.01079E-07-3.28593E-12 8.57552E-07
 -1         8 7.95726E-06 3.92489E-12-4.03542E-12-9.02024E-07-3.28987E-12-8.58544E-07
 -1         9-2.06125E-09-3.39241E-15-3.59319E-15-7.73881E-07 3.28774E-12-4.44066E-10
 -1        10-5.22287E-06 2.12070E-06 9.95144E-07-1.07728E-06-4.53560E-07 2.12146E-07
 -1        11-6.90148E-06 1.06084E-06 2.39460E-06-3.70265E-07 5.64084E-07-1.67131E-07
 -1        12-2.57580E-06 9.29260E-07 7.01537E-07-1.46558E-07-9.57994E-08 3.84085E-09
 -1        13 2.62523E-11 1.60687E-10 1.36130E-10-1.32749E-06 1.70592E-07-1.30124E-10
 -1        14 5.22047E-06-2.12028E-06-9.93914E-07-1.07733E-06-4.53052E-07-2.13229E-07
 -1        15 6.89794E-06-1.05964E-06-2.39422E-06-3.70019E-07 5.63487E-07 1.66837E-07
 -1        16 2.57486E-06-9.29825E-07-7.01036E-07-1.46586E-07-9.52674E-08-3.87007E-09
 -1        17-5.28691E-07-2.61036E-07 1.87658E-07-1.08071E-06 1.73088E-10-4.08735E-11
 -1        18-2.03888E-10 1.39605E-10 1.46391E-10-1.32716E-06-1.70447E-07-2.23804E-10
 -1        19 5.28503E-07 2.61487E-07-1.87436E-07-1.08065E-06-1.53223E-10-3.15524E-10
 -1        20-5.22089E-06 2.12036E-06 9.94087E-07-1.07833E-06 4.53350E-07-2.13628E-07
 -1        21-2.57505E-06 9.29765E-07 7.00918E-07-1.46963E-07 9.54171E-08-3.99499E-09
 -1        22-6.89730E-06 1.05925E-06 2.39407E-06-3.71130E-07-5.63417E-07 1.66909E-07
 -1        23 3.22808E-09-6.94871E-15-1.57665E-15-7.74365E-07-3.28800E-12-5.32569E-10
 -1        24 5.22321E-06-2.12085E-06-9.95037E-07-1.07776E-06 4.53389E-07 2.13019E-07
 -1        25 2.57569E-06-9.29718E-07-7.01497E-07-1.46787E-07 9.54840E-08 4.00150E-09
 -1        26 6.90203E-06-1.06134E-06-2.39478E-06-3.71153E-07-5.64249E-07-1.66952E-07
 -1        27-7.98087E-06-3.92775E-12 4.03571E-12-9.88039E-07 1.39299E-15-6.92932E-10
 -1        28 7.98205E-06 3.91824E-12-4.04064E-12-9.88219E-07-1.75121E-15-1.63661E-10
 -1        29-1.17534E-09 2.09548E-10 5.78716E-10-1.08520E-06-4.53289E-07-4.85310E-10
 -1        30 1.15819E-09-2.45305E-10-5.11305E-10-1.08593E-06 4.53386E-07-2.45113E-10
 -1        31 5.22371E-06-2.12044E-06-9.94476E-07-1.01672E-06 1.71732E-10-1.07586E-10
 -1        32-5.22372E-06 2.12065E-06 9.94615E-07-1.01699E-06-1.01531E-10-7.38394E-10
 -3
    1PSTEP                         4           1           1          
  100CL  101 1.000000000          32                     0    1           1
 -4  FORC        4    1
 -5  F1          1    2    1    0
 -5  F2          1    2    2    0
 -5  F3          1    2    3    0
 -5  ALL         1    2    0    0    1ALL
 -1         1-7.96092E+02 1.28845E+03-5.21783E+02
 -1         2 7.96506E+02 1.28857E+03 5.22613E+02
 -1         3 1.28688E-11 8.33164E+01 5.93481E-12
 -1         4-3.88489E-12 8.33164E+01-2.74190E-11
 -1         5 2.06306E-11 8.33164E+01-1.44649E-11
 -1         6-7.50439E-12 8.33164E+01 3.29772E-11
 -1         7 7.95912E+02 1.28829E+03-5.21598E+02
 -1         8-7.96639E+02 1.28869E+03 5.22657E+02
 -1         9 6.59388E-01-3.03217E+03 3.68509E-01
 -1        10 8.97193E-12-1.27564E-10-1.56946E-11
 -1        11 1.16933E-01-3.43114E-02 3.59689E-02
 -1        12-5.67501E-02 3.06380E-01-3.18671E-01
 -1        13-2.79292E-02-3.33326E+02-2.52994E-01
 -1        14-8.68727E-12-1.50767E-11 6.40588E-12
 -1        15 4.72660E-01-8.68968E-02 8.97595E-02
 -1        16 5.70102E-02-1.60372E-01 2.43101E-01
 -1        17 1.15589E-01-3.33475E+02 1.07252E-01
 -1        18-6.62715E-02-3.33265E+02 1.01057E-02
 -1        19-8.95211E-02-3.33173E+02 7.97520E-02
 -1        20-4.08557E-12-1.45448E-10 4.27816E-11
 -1        21 4.11200E-02-1.93246E-01 1.21992E-01
 -1        22 5.82302E-01 2.61426E-01-5.11416E-02
 -1        23-1.10637E+00-3.03190E+03 5.31479E-01
 -1        24-2.89708E-11 1.79113E-10-5.46473E-12
 -1        25 3.01446E-02 3.33133E-03-3.09877E-01
 -1        26 9.22986E-02-4.10147E-01-1.76269E-01
 -1        27 2.57403E+03 9.55171E+02-1.21176E+00
 -1        28-2.57454E+03 9.55189E+02-1.15675E+00
 -1        29-1.60677E-11 2.11501E-11-5.13578E-12
 -1        30-5.83467E-12 1.93291E-11-5.89939E-12
 -1        31-4.70494E-11-1.64850E-11-3.85074E-11
 -1        32 1.08538E-11-1.04315E-10-1.78062E-11
 -3
 9999
