    1C
    1UHash: 3lWUJp8H, Date: 01/25/2026, Unit system: M_KG_S_C           
    1UUSER                                                              
    1UDATE              25.january.2026                                 
    1UTIME              23:49:56                                        
    1UHOST                                                              
    1UPGM               CalculiX                                        
    1UVERSION           Version 2.23                             
    1UCOMPILETIME       Sun Jan 11 00:39:44 CET 2026                    
    1UDIR                                                               
    1UDBN                                                               
    1UMAT    1S235                                                      
    2C                           261                                     1
 -1         1-2.50000E-01 3.00000E-02-5.00000E-02
 -1         2-2.50000E-01-3.00000E-02-5.00000E-02
 -1         3 2.50000E-01-3.00000E-02-5.00000E-02
 -1         4 2.50000E-01 3.00000E-02-5.00000E-02
 -1         5 2.50000E-01-3.00000E-02 5.00000E-02
 -1         6 2.50000E-01 3.00000E-02 5.00000E-02
 -1         7-2.50000E-01-3.00000E-02 5.00000E-02
 -1         8-2.50000E-01 3.00000E-02 5.00000E-02
 -1         9-2.50000E-01-1.00614E-16-5.00000E-02
 -1        10-2.50000E-01 1.50000E-02-5.00000E-02
 -1        11-2.50000E-01-1.50000E-02-5.00000E-02
 -1        12-1.87500E-01-3.00000E-02-5.00000E-02
 -1        13-1.25000E-01-3.00000E-02-5.00000E-02
 -1        14-6.25000E-02-3.00000E-02-5.00000E-02
 -1        15 0.00000E+00-3.00000E-02-5.00000E-02
 -1        16 6.25000E-02-3.00000E-02-5.00000E-02
 -1        17 1.25000E-01-3.00000E-02-5.00000E-02
 -1        18 1.87500E-01-3.00000E-02-5.00000E-02
 -1        19-2.18750E-01-3.00000E-02-5.00000E-02
 -1        20-1.56250E-01-3.00000E-02-5.00000E-02
 -1        21-9.37500E-02-3.00000E-02-5.00000E-02
 -1        22-3.12500E-02-3.00000E-02-5.00000E-02
 -1        23 3.12500E-02-3.00000E-02-5.00000E-02
 -1        24 9.37500E-02-3.00000E-02-5.00000E-02
 -1        25 1.56250E-01-3.00000E-02-5.00000E-02
 -1        26 2.18750E-01-3.00000E-02-5.00000E-02
 -1        27 2.50000E-01-1.00614E-16-5.00000E-02
 -1        28 2.50000E-01 1.50000E-02-5.00000E-02
 -1        29 2.50000E-01-1.50000E-02-5.00000E-02
 -1        30-1.87500E-01 3.00000E-02-5.00000E-02
 -1        31-1.25000E-01 3.00000E-02-5.00000E-02
 -1        32-6.25000E-02 3.00000E-02-5.00000E-02
 -1        33 0.00000E+00 3.00000E-02-5.00000E-02
 -1        34 6.25000E-02 3.00000E-02-5.00000E-02
 -1        35 1.25000E-01 3.00000E-02-5.00000E-02
 -1        36 1.87500E-01 3.00000E-02-5.00000E-02
 -1        37-2.18750E-01 3.00000E-02-5.00000E-02
 -1        38-1.56250E-01 3.00000E-02-5.00000E-02
 -1        39-9.37500E-02 3.00000E-02-5.00000E-02
 -1        40-3.12500E-02 3.00000E-02-5.00000E-02
 -1        41 3.12500E-02 3.00000E-02-5.00000E-02
 -1        42 9.37500E-02 3.00000E-02-5.00000E-02
 -1        43 1.56250E-01 3.00000E-02-5.00000E-02
 -1        44 2.18750E-01 3.00000E-02-5.00000E-02
 -1        45 2.50000E-01-3.00000E-02 3.46945E-17
 -1        46 2.50000E-01-3.00000E-02-2.50000E-02
 -1        47 2.50000E-01-3.00000E-02 2.50000E-02
 -1        48 2.50000E-01-1.00614E-16 5.00000E-02
 -1        49 2.50000E-01 1.50000E-02 5.00000E-02
 -1        50 2.50000E-01-1.50000E-02 5.00000E-02
 -1        51 2.50000E-01 3.00000E-02 3.46945E-17
 -1        52 2.50000E-01 3.00000E-02-2.50000E-02
 -1        53 2.50000E-01 3.00000E-02 2.50000E-02
 -1        54 1.87500E-01-3.00000E-02 5.00000E-02
 -1        55 1.25000E-01-3.00000E-02 5.00000E-02
 -1        56 6.25000E-02-3.00000E-02 5.00000E-02
 -1        57 0.00000E+00-3.00000E-02 5.00000E-02
 -1        58-6.25000E-02-3.00000E-02 5.00000E-02
 -1        59-1.25000E-01-3.00000E-02 5.00000E-02
 -1        60-1.87500E-01-3.00000E-02 5.00000E-02
 -1        61 2.18750E-01-3.00000E-02 5.00000E-02
 -1        62 1.56250E-01-3.00000E-02 5.00000E-02
 -1        63 9.37500E-02-3.00000E-02 5.00000E-02
 -1        64 3.12500E-02-3.00000E-02 5.00000E-02
 -1        65-3.12500E-02-3.00000E-02 5.00000E-02
 -1        66-9.37500E-02-3.00000E-02 5.00000E-02
 -1        67-1.56250E-01-3.00000E-02 5.00000E-02
 -1        68-2.18750E-01-3.00000E-02 5.00000E-02
 -1        69-2.50000E-01-1.00614E-16 5.00000E-02
 -1        70-2.50000E-01 1.50000E-02 5.00000E-02
 -1        71-2.50000E-01-1.50000E-02 5.00000E-02
 -1        72 1.87500E-01 3.00000E-02 5.00000E-02
 -1        73 1.25000E-01 3.00000E-02 5.00000E-02
 -1        74 6.25000E-02 3.00000E-02 5.00000E-02
 -1        75 0.00000E+00 3.00000E-02 5.00000E-02
 -1        76-6.25000E-02 3.00000E-02 5.00000E-02
 -1        77-1.25000E-01 3.00000E-02 5.00000E-02
 -1        78-1.87500E-01 3.00000E-02 5.00000E-02
 -1        79 2.18750E-01 3.00000E-02 5.00000E-02
 -1        80 1.56250E-01 3.00000E-02 5.00000E-02
 -1        81 9.37500E-02 3.00000E-02 5.00000E-02
 -1        82 3.12500E-02 3.00000E-02 5.00000E-02
 -1        83-3.12500E-02 3.00000E-02 5.00000E-02
 -1        84-9.37500E-02 3.00000E-02 5.00000E-02
 -1        85-1.56250E-01 3.00000E-02 5.00000E-02
 -1        86-2.18750E-01 3.00000E-02 5.00000E-02
 -1        87-2.50000E-01-3.00000E-02-3.46945E-17
 -1        88-2.50000E-01-3.00000E-02 2.50000E-02
 -1        89-2.50000E-01-3.00000E-02-2.50000E-02
 -1        90-2.50000E-01 3.00000E-02-3.46945E-17
 -1        91-2.50000E-01 3.00000E-02 2.50000E-02
 -1        92-2.50000E-01 3.00000E-02-2.50000E-02
 -1        93-1.87500E-01-1.00614E-16-5.00000E-02
 -1        94-1.25000E-01-1.04083E-16-5.00000E-02
 -1        95-6.25000E-02-1.04083E-16-5.00000E-02
 -1        96 0.00000E+00-1.00614E-16-5.00000E-02
 -1        97 6.25000E-02-9.71445E-17-5.00000E-02
 -1        98 1.25000E-01-1.04083E-16-5.00000E-02
 -1        99 1.87500E-01-1.00614E-16-5.00000E-02
 -1       100-1.87500E-01 1.50000E-02-5.00000E-02
 -1       101-2.18750E-01-1.00614E-16-5.00000E-02
 -1       102-1.25000E-01 1.50000E-02-5.00000E-02
 -1       103-1.56250E-01-1.02349E-16-5.00000E-02
 -1       104-6.25000E-02 1.50000E-02-5.00000E-02
 -1       105-9.37500E-02-1.04083E-16-5.00000E-02
 -1       106 0.00000E+00 1.50000E-02-5.00000E-02
 -1       107-3.12500E-02-1.02349E-16-5.00000E-02
 -1       108 6.25000E-02 1.50000E-02-5.00000E-02
 -1       109 3.12500E-02-9.88792E-17-5.00000E-02
 -1       110 1.25000E-01 1.50000E-02-5.00000E-02
 -1       111 9.37500E-02-1.00614E-16-5.00000E-02
 -1       112 1.87500E-01 1.50000E-02-5.00000E-02
 -1       113 1.56250E-01-1.02349E-16-5.00000E-02
 -1       114 2.18750E-01-1.00614E-16-5.00000E-02
 -1       115-1.87500E-01-1.50000E-02-5.00000E-02
 -1       116-1.25000E-01-1.50000E-02-5.00000E-02
 -1       117-6.25000E-02-1.50000E-02-5.00000E-02
 -1       118 0.00000E+00-1.50000E-02-5.00000E-02
 -1       119 6.25000E-02-1.50000E-02-5.00000E-02
 -1       120 1.25000E-01-1.50000E-02-5.00000E-02
 -1       121 1.87500E-01-1.50000E-02-5.00000E-02
 -1       122 2.50000E-01-9.02056E-17 3.46945E-17
 -1       123 2.50000E-01 1.50000E-02 3.46945E-17
 -1       124 2.50000E-01-9.54098E-17-2.50000E-02
 -1       125 2.50000E-01-9.54098E-17 2.50000E-02
 -1       126 2.50000E-01-1.50000E-02 3.46945E-17
 -1       127 1.87500E-01-1.00614E-16 5.00000E-02
 -1       128 1.25000E-01-1.04083E-16 5.00000E-02
 -1       129 6.25000E-02-1.04083E-16 5.00000E-02
 -1       130 0.00000E+00-1.00614E-16 5.00000E-02
 -1       131-6.25000E-02-9.71445E-17 5.00000E-02
 -1       132-1.25000E-01-1.04083E-16 5.00000E-02
 -1       133-1.87500E-01-1.00614E-16 5.00000E-02
 -1       134 1.87500E-01 1.50000E-02 5.00000E-02
 -1       135 2.18750E-01-1.00614E-16 5.00000E-02
 -1       136 1.25000E-01 1.50000E-02 5.00000E-02
 -1       137 1.56250E-01-1.02349E-16 5.00000E-02
 -1       138 6.25000E-02 1.50000E-02 5.00000E-02
 -1       139 9.37500E-02-1.04083E-16 5.00000E-02
 -1       140 0.00000E+00 1.50000E-02 5.00000E-02
 -1       141 3.12500E-02-1.02349E-16 5.00000E-02
 -1       142-6.25000E-02 1.50000E-02 5.00000E-02
 -1       143-3.12500E-02-9.88792E-17 5.00000E-02
 -1       144-1.25000E-01 1.50000E-02 5.00000E-02
 -1       145-9.37500E-02-1.00614E-16 5.00000E-02
 -1       146-1.87500E-01 1.50000E-02 5.00000E-02
 -1       147-1.56250E-01-1.02349E-16 5.00000E-02
 -1       148-2.18750E-01-1.00614E-16 5.00000E-02
 -1       149 1.87500E-01-1.50000E-02 5.00000E-02
 -1       150 1.25000E-01-1.50000E-02 5.00000E-02
 -1       151 6.25000E-02-1.50000E-02 5.00000E-02
 -1       152 0.00000E+00-1.50000E-02 5.00000E-02
 -1       153-6.25000E-02-1.50000E-02 5.00000E-02
 -1       154-1.25000E-01-1.50000E-02 5.00000E-02
 -1       155-1.87500E-01-1.50000E-02 5.00000E-02
 -1       156-2.50000E-01-1.07553E-16-4.16334E-17
 -1       157-2.50000E-01 1.50000E-02-3.81639E-17
 -1       158-2.50000E-01-1.04083E-16 2.50000E-02
 -1       159-2.50000E-01-1.04083E-16-2.50000E-02
 -1       160-2.50000E-01-1.50000E-02-3.81639E-17
 -1       161-1.87500E-01 3.00000E-02-2.68882E-17
 -1       162-1.25000E-01 3.00000E-02-1.56125E-17
 -1       163-6.25000E-02 3.00000E-02-8.67362E-18
 -1       164-5.78241E-18 3.00000E-02 2.28030E-31
 -1       165 6.25000E-02 3.00000E-02 8.67362E-18
 -1       166 1.25000E-01 3.00000E-02 1.73472E-17
 -1       167 1.87500E-01 3.00000E-02 2.60209E-17
 -1       168-1.87500E-01 3.00000E-02 2.50000E-02
 -1       169-2.18750E-01 3.00000E-02-3.07913E-17
 -1       170-1.25000E-01 3.00000E-02 2.50000E-02
 -1       171-1.56250E-01 3.00000E-02-2.12504E-17
 -1       172-6.25000E-02 3.00000E-02 2.50000E-02
 -1       173-9.37500E-02 3.00000E-02-1.21431E-17
 -1       174-2.89121E-18 3.00000E-02 2.50000E-02
 -1       175-3.12500E-02 3.00000E-02-4.33681E-18
 -1       176 6.25000E-02 3.00000E-02 2.50000E-02
 -1       177 3.12500E-02 3.00000E-02 4.33681E-18
 -1       178 1.25000E-01 3.00000E-02 2.50000E-02
 -1       179 9.37500E-02 3.00000E-02 1.30104E-17
 -1       180 1.87500E-01 3.00000E-02 2.50000E-02
 -1       181 1.56250E-01 3.00000E-02 2.16840E-17
 -1       182 2.18750E-01 3.00000E-02 3.03577E-17
 -1       183-1.87500E-01 3.00000E-02-2.50000E-02
 -1       184-1.25000E-01 3.00000E-02-2.50000E-02
 -1       185-6.25000E-02 3.00000E-02-2.50000E-02
 -1       186-2.89121E-18 3.00000E-02-2.50000E-02
 -1       187 6.25000E-02 3.00000E-02-2.50000E-02
 -1       188 1.25000E-01 3.00000E-02-2.50000E-02
 -1       189 1.87500E-01 3.00000E-02-2.50000E-02
 -1       190-1.87500E-01-3.00000E-02-2.51535E-17
 -1       191-1.25000E-01-3.00000E-02-1.90820E-17
 -1       192-6.25000E-02-3.00000E-02-8.67362E-18
 -1       193-5.78241E-18-3.00000E-02-2.28030E-31
 -1       194 6.25000E-02-3.00000E-02 1.04083E-17
 -1       195 1.25000E-01-3.00000E-02 1.38778E-17
 -1       196 1.87500E-01-3.00000E-02 2.60209E-17
 -1       197-2.18750E-01-3.00000E-02-2.99240E-17
 -1       198-1.87500E-01-3.00000E-02 2.50000E-02
 -1       199-1.56250E-01-3.00000E-02-2.21177E-17
 -1       200-1.25000E-01-3.00000E-02 2.50000E-02
 -1       201-9.37500E-02-3.00000E-02-1.38778E-17
 -1       202-6.25000E-02-3.00000E-02 2.50000E-02
 -1       203-3.12500E-02-3.00000E-02-4.33681E-18
 -1       204-2.89121E-18-3.00000E-02 2.50000E-02
 -1       205 3.12500E-02-3.00000E-02 5.20417E-18
 -1       206 6.25000E-02-3.00000E-02 2.50000E-02
 -1       207 9.37500E-02-3.00000E-02 1.21431E-17
 -1       208 1.25000E-01-3.00000E-02 2.50000E-02
 -1       209 1.56250E-01-3.00000E-02 1.99493E-17
 -1       210 1.87500E-01-3.00000E-02 2.50000E-02
 -1       211 2.18750E-01-3.00000E-02 3.03577E-17
 -1       212-1.87500E-01-3.00000E-02-2.50000E-02
 -1       213-1.25000E-01-3.00000E-02-2.50000E-02
 -1       214-6.25000E-02-3.00000E-02-2.50000E-02
 -1       215-2.89121E-18-3.00000E-02-2.50000E-02
 -1       216 6.25000E-02-3.00000E-02-2.50000E-02
 -1       217 1.25000E-01-3.00000E-02-2.50000E-02
 -1       218 1.87500E-01-3.00000E-02-2.50000E-02
 -1       219-1.87500E-01-9.64940E-17-3.25261E-17
 -1       220-1.25000E-01-1.01048E-16-2.86229E-17
 -1       221-6.25000E-02-9.67108E-17-1.04083E-17
 -1       222 0.00000E+00-9.88792E-17-5.20417E-18
 -1       223 6.25000E-02-9.97466E-17 1.04083E-17
 -1       224 1.25000E-01-1.03216E-16 1.38778E-17
 -1       225 1.87500E-01-1.01481E-16 2.77556E-17
 -1       226-1.87500E-01-9.85540E-17-2.50000E-02
 -1       227-2.18750E-01-1.02023E-16-3.70797E-17
 -1       228-1.87500E-01 1.50000E-02-2.97071E-17
 -1       229-1.87500E-01-9.85540E-17 2.50000E-02
 -1       230-1.25000E-01-1.02566E-16-2.50000E-02
 -1       231-1.56250E-01-9.87708E-17-3.05745E-17
 -1       232-1.25000E-01 1.50000E-02-2.21177E-17
 -1       233-1.25000E-01-1.02566E-16 2.50000E-02
 -1       234-6.25000E-02-1.00397E-16-2.50000E-02
 -1       235-9.37500E-02-9.88792E-17-1.95156E-17
 -1       236-6.25000E-02 1.50000E-02-9.54098E-18
 -1       237-6.25000E-02-9.69277E-17 2.50000E-02
 -1       238 0.00000E+00-9.97466E-17-2.50000E-02
 -1       239-3.12500E-02-9.77950E-17-7.80626E-18
 -1       240-2.89121E-18 1.50000E-02-2.60209E-18
 -1       241 0.00000E+00-9.97466E-17 2.50000E-02
 -1       242 6.25000E-02-9.84456E-17-2.50000E-02
 -1       243 3.12500E-02-9.93129E-17 2.60209E-18
 -1       244 6.25000E-02 1.50000E-02 9.54098E-18
 -1       245 6.25000E-02-1.01915E-16 2.50000E-02
 -1       246 1.25000E-01-1.03650E-16-2.50000E-02
 -1       247 9.37500E-02-1.01481E-16 1.21431E-17
 -1       248 1.25000E-01 1.50000E-02 1.56125E-17
 -1       249 1.25000E-01-1.03650E-16 2.50000E-02
 -1       250 1.87500E-01-1.01048E-16-2.50000E-02
 -1       251 1.56250E-01-1.02349E-16 2.08167E-17
 -1       252 1.87500E-01 1.50000E-02 2.68882E-17
 -1       253 1.87500E-01-1.01048E-16 2.50000E-02
 -1       254 2.18750E-01-9.58435E-17 3.12250E-17
 -1       255-1.87500E-01-1.50000E-02-2.88398E-17
 -1       256-1.25000E-01-1.50000E-02-2.38524E-17
 -1       257-6.25000E-02-1.50000E-02-9.54098E-18
 -1       258-2.89121E-18-1.50000E-02-2.60209E-18
 -1       259 6.25000E-02-1.50000E-02 1.04083E-17
 -1       260 1.25000E-01-1.50000E-02 1.38778E-17
 -1       261 1.87500E-01-1.50000E-02 2.68882E-17
 -3
    3C                            32                                     1
 -1         1    4    0    1
 -2         1         9        93        30        90       156       219       161        10       101
 -2       100        37        92       159       226       183       157       227       228       169
 -1         2    4    0    1
 -2        90       156       219       161         8        69       133        78       157       227
 -2       228       169        91       158       229       168        70       148       146        86
 -1         3    4    0    1
 -2        30        93        94        31       161       219       220       162       100       103
 -2       102        38       183       226       230       184       228       231       232       171
 -1         4    4    0    1
 -2       161       219       220       162        78       133       132        77       228       231
 -2       232       171       168       229       233       170       146       147       144        85
 -1         5    4    0    1
 -2        31        94        95        32       162       220       221       163       102       105
 -2       104        39       184       230       234       185       232       235       236       173
 -1         6    4    0    1
 -2       162       220       221       163        77       132       131        76       232       235
 -2       236       173       170       233       237       172       144       145       142        84
 -1         7    4    0    1
 -2        32        95        96        33       163       221       222       164       104       107
 -2       106        40       185       234       238       186       236       239       240       175
 -1         8    4    0    1
 -2       163       221       222       164        76       131       130        75       236       239
 -2       240       175       172       237       241       174       142       143       140        83
 -1         9    4    0    1
 -2        33        96        97        34       164       222       223       165       106       109
 -2       108        41       186       238       242       187       240       243       244       177
 -1        10    4    0    1
 -2       164       222       223       165        75       130       129        74       240       243
 -2       244       177       174       241       245       176       140       141       138        82
 -1        11    4    0    1
 -2        34        97        98        35       165       223       224       166       108       111
 -2       110        42       187       242       246       188       244       247       248       179
 -1        12    4    0    1
 -2       165       223       224       166        74       129       128        73       244       247
 -2       248       179       176       245       249       178       138       139       136        81
 -1        13    4    0    1
 -2        35        98        99        36       166       224       225       167       110       113
 -2       112        43       188       246       250       189       248       251       252       181
 -1        14    4    0    1
 -2       166       224       225       167        73       128       127        72       248       251
 -2       252       181       178       249       253       180       136       137       134        80
 -1        15    4    0    1
 -2        36        99        27         4       167       225       122        51       112       114
 -2        28        44       189       250       124        52       252       254       123       182
 -1        16    4    0    1
 -2       167       225       122        51        72       127        48         6       252       254
 -2       123       182       180       253       125        53       134       135        49        79
 -1        17    4    0    1
 -2         9         2        12        93       156        87       190       219        11        19
 -2       115       101       159        89       212       226       160       197       255       227
 -1        18    4    0    1
 -2       156        87       190       219        69         7        60       133       160       197
 -2       255       227       158        88       198       229        71        68       155       148
 -1        19    4    0    1
 -2        93        12        13        94       219       190       191       220       115        20
 -2       116       103       226       212       213       230       255       199       256       231
 -1        20    4    0    1
 -2       219       190       191       220       133        60        59       132       255       199
 -2       256       231       229       198       200       233       155        67       154       147
 -1        21    4    0    1
 -2        94        13        14        95       220       191       192       221       116        21
 -2       117       105       230       213       214       234       256       201       257       235
 -1        22    4    0    1
 -2       220       191       192       221       132        59        58       131       256       201
 -2       257       235       233       200       202       237       154        66       153       145
 -1        23    4    0    1
 -2        95        14        15        96       221       192       193       222       117        22
 -2       118       107       234       214       215       238       257       203       258       239
 -1        24    4    0    1
 -2       221       192       193       222       131        58        57       130       257       203
 -2       258       239       237       202       204       241       153        65       152       143
 -1        25    4    0    1
 -2        96        15        16        97       222       193       194       223       118        23
 -2       119       109       238       215       216       242       258       205       259       243
 -1        26    4    0    1
 -2       222       193       194       223       130        57        56       129       258       205
 -2       259       243       241       204       206       245       152        64       151       141
 -1        27    4    0    1
 -2        97        16        17        98       223       194       195       224       119        24
 -2       120       111       242       216       217       246       259       207       260       247
 -1        28    4    0    1
 -2       223       194       195       224       129        56        55       128       259       207
 -2       260       247       245       206       208       249       151        63       150       139
 -1        29    4    0    1
 -2        98        17        18        99       224       195       196       225       120        25
 -2       121       113       246       217       218       250       260       209       261       251
 -1        30    4    0    1
 -2       224       195       196       225       128        55        54       127       260       209
 -2       261       251       249       208       210       253       150        62       149       137
 -1        31    4    0    1
 -2        99        18         3        27       225       196        45       122       121        26
 -2        29       114       250       218        46       124       261       211       126       254
 -1        32    4    0    1
 -2       225       196        45       122       127        54         5        48       261       211
 -2       126       254       253       210        47       125       149        61        50       135
 -3
    1PSTEP                         1           1           1          
  100CL  101 1.000000000         261                     0    1           1
 -4  DISP        4    1
 -5  D1          1    2    1    0
 -5  D2          1    2    2    0
 -5  D3          1    2    3    0
 -5  ALL         1    2    0    0    1ALL
 -1         1 0.00000E+00 0.00000E+00 0.00000E+00
 -1         2 0.00000E+00 0.00000E+00 0.00000E+00
 -1         3-9.79745E-06-1.09215E-04-1.67102E-08
 -1         4 9.79759E-06-1.09215E-04 1.69505E-08
 -1         5-9.79758E-06-1.09215E-04 1.69222E-08
 -1         6 9.79748E-06-1.09215E-04-1.66913E-08
 -1         7 0.00000E+00 0.00000E+00 0.00000E+00
 -1         8 0.00000E+00 0.00000E+00 0.00000E+00
 -1         9 0.00000E+00 0.00000E+00 0.00000E+00
 -1        10 0.00000E+00 0.00000E+00 0.00000E+00
 -1        11 0.00000E+00 0.00000E+00 0.00000E+00
 -1        12-2.20353E-06-2.23407E-06-4.46508E-07
 -1        13-4.21695E-06-9.11087E-06-4.13474E-07
 -1        14-5.91716E-06-1.98766E-05-3.46892E-07
 -1        15-7.31330E-06-3.38698E-05-2.77728E-07
 -1        16-8.39803E-06-5.04474E-05-2.08304E-07
 -1        17-9.17328E-06-6.89625E-05-1.38997E-07
 -1        18-9.63855E-06-8.87688E-05-7.08564E-08
 -1        19-1.08731E-06-5.55136E-07-3.90601E-07
 -1        20-3.24798E-06-5.14781E-06-4.44096E-07
 -1        21-5.10119E-06-1.40514E-05-3.80691E-07
 -1        22-6.65190E-06-2.65097E-05-3.12449E-07
 -1        23-7.89190E-06-4.18762E-05-2.43009E-07
 -1        24-8.82201E-06-5.95030E-05-1.73637E-07
 -1        25-9.44193E-06-7.87445E-05-1.04450E-07
 -1        26-9.75285E-06-9.89498E-05-4.02653E-08
 -1        27 7.33704E-11-1.09204E-04 1.27681E-10
 -1        28 4.88600E-06-1.09209E-04 7.06716E-09
 -1        29-4.88585E-06-1.09209E-04-6.81859E-09
 -1        30 2.20355E-06-2.23408E-06 4.46516E-07
 -1        31 4.21699E-06-9.11084E-06 4.13475E-07
 -1        32 5.91722E-06-1.98765E-05 3.46914E-07
 -1        33 7.31331E-06-3.38698E-05 2.77800E-07
 -1        34 8.39798E-06-5.04474E-05 2.08420E-07
 -1        35 9.17330E-06-6.89624E-05 1.39055E-07
 -1        36 9.63866E-06-8.87688E-05 7.09398E-08
 -1        37 1.08732E-06-5.55136E-07 3.90610E-07
 -1        38 3.24801E-06-5.14781E-06 4.44093E-07
 -1        39 5.10125E-06-1.40514E-05 3.80686E-07
 -1        40 6.65195E-06-2.65096E-05 3.12498E-07
 -1        41 7.89187E-06-4.18762E-05 2.43106E-07
 -1        42 8.82198E-06-5.95030E-05 1.73722E-07
 -1        43 9.44198E-06-7.87445E-05 1.04498E-07
 -1        44 9.75298E-06-9.89498E-05 4.04144E-08
 -1        45-9.80503E-06-1.09240E-04 1.06520E-10
 -1        46-9.80466E-06-1.09232E-04-1.12126E-08
 -1        47-9.80472E-06-1.09232E-04 1.14314E-08
 -1        48-4.23907E-11-1.09204E-04 1.11366E-10
 -1        49 4.88588E-06-1.09209E-04-6.81752E-09
 -1        50-4.88597E-06-1.09209E-04 7.04102E-09
 -1        51 9.80507E-06-1.09240E-04 1.27299E-10
 -1        52 9.80473E-06-1.09232E-04 1.14569E-08
 -1        53 9.80469E-06-1.09232E-04-1.12077E-08
 -1        54-9.63862E-06-8.87688E-05 7.09385E-08
 -1        55-9.17327E-06-6.89625E-05 1.39048E-07
 -1        56-8.39802E-06-5.04476E-05 2.08347E-07
 -1        57-7.31335E-06-3.38698E-05 2.77814E-07
 -1        58-5.91721E-06-1.98764E-05 3.47007E-07
 -1        59-4.21692E-06-9.11091E-06 4.13435E-07
 -1        60-2.20354E-06-2.23432E-06 4.46378E-07
 -1        61-9.75295E-06-9.89498E-05 4.03990E-08
 -1        62-9.44195E-06-7.87445E-05 1.04493E-07
 -1        63-8.82198E-06-5.95031E-05 1.73681E-07
 -1        64-7.89193E-06-4.18762E-05 2.43082E-07
 -1        65-6.65197E-06-2.65095E-05 3.12560E-07
 -1        66-5.10120E-06-1.40513E-05 3.80735E-07
 -1        67-3.24797E-06-5.14796E-06 4.44002E-07
 -1        68-1.08733E-06-5.55266E-07 3.90525E-07
 -1        69 0.00000E+00 0.00000E+00 0.00000E+00
 -1        70 0.00000E+00 0.00000E+00 0.00000E+00
 -1        71 0.00000E+00 0.00000E+00 0.00000E+00
 -1        72 9.63855E-06-8.87688E-05-7.08635E-08
 -1        73 9.17329E-06-6.89625E-05-1.39003E-07
 -1        74 8.39799E-06-5.04475E-05-2.08248E-07
 -1        75 7.31328E-06-3.38698E-05-2.77737E-07
 -1        76 5.91717E-06-1.98764E-05-3.46995E-07
 -1        77 4.21693E-06-9.11087E-06-4.13468E-07
 -1        78 2.20355E-06-2.23431E-06-4.46379E-07
 -1        79 9.75286E-06-9.89498E-05-4.02354E-08
 -1        80 9.44193E-06-7.87445E-05-1.04464E-07
 -1        81 8.82198E-06-5.95031E-05-1.73610E-07
 -1        82 7.89187E-06-4.18762E-05-2.42994E-07
 -1        83 6.65191E-06-2.65095E-05-3.12515E-07
 -1        84 5.10117E-06-1.40513E-05-3.80750E-07
 -1        85 3.24798E-06-5.14795E-06-4.44011E-07
 -1        86 1.08733E-06-5.55261E-07-3.90527E-07
 -1        87 0.00000E+00 0.00000E+00 0.00000E+00
 -1        88 0.00000E+00 0.00000E+00 0.00000E+00
 -1        89 0.00000E+00 0.00000E+00 0.00000E+00
 -1        90 0.00000E+00 0.00000E+00 0.00000E+00
 -1        91 0.00000E+00 0.00000E+00 0.00000E+00
 -1        92 0.00000E+00 0.00000E+00 0.00000E+00
 -1        93 1.17983E-11-2.11090E-06 2.75298E-12
 -1        94 2.45463E-11-8.98971E-06-7.46007E-12
 -1        95 3.52333E-11-1.97724E-05 2.76820E-12
 -1        96 4.30974E-12-3.37866E-05 3.83696E-11
 -1        97-3.19503E-11-5.03849E-05 5.03541E-11
 -1        98 5.41117E-12-6.89207E-05 1.95830E-11
 -1        99 4.85910E-11-8.87467E-05 4.85658E-11
 -1       100 1.09722E-06-2.12482E-06 2.27419E-07
 -1       101 5.70725E-12-3.76892E-07 4.85057E-12
 -1       102 2.09430E-06-9.02201E-06 2.06065E-07
 -1       103 2.51477E-11-5.01202E-06-3.10629E-12
 -1       104 2.94656E-06-1.97976E-05 1.73691E-07
 -1       105 3.81452E-11-1.39363E-05-4.45845E-12
 -1       106 3.64392E-06-3.38076E-05 1.38852E-07
 -1       107 2.01909E-11-2.64159E-05 2.07706E-11
 -1       108 4.18644E-06-5.04005E-05 1.04260E-07
 -1       109-2.10744E-11-4.18032E-05 5.79447E-11
 -1       110 4.57398E-06-6.89311E-05 6.94952E-08
 -1       111-1.29517E-11-5.94509E-05 2.91908E-11
 -1       112 4.80716E-06-8.87526E-05 3.55976E-08
 -1       113 2.52177E-11-7.87133E-05 2.13145E-11
 -1       114 6.91139E-11-9.89408E-05 7.49997E-11
 -1       115-1.09720E-06-2.12481E-06-2.27412E-07
 -1       116-2.09426E-06-9.02203E-06-2.06075E-07
 -1       117-2.94650E-06-1.97976E-05-1.73683E-07
 -1       118-3.64390E-06-3.38076E-05-1.38775E-07
 -1       119-4.18650E-06-5.04005E-05-1.04162E-07
 -1       120-4.57397E-06-6.89312E-05-6.94461E-08
 -1       121-4.80706E-06-8.87526E-05-3.55079E-08
 -1       122 2.55303E-11-1.09233E-04 1.22911E-10
 -1       123 4.89190E-06-1.09237E-04 1.27672E-10
 -1       124 3.82246E-11-1.09222E-04 1.23099E-10
 -1       125-9.02291E-12-1.09222E-04 1.22131E-10
 -1       126-4.89185E-06-1.09237E-04 1.12865E-10
 -1       127-3.28278E-11-8.87467E-05 3.49126E-11
 -1       128 1.83432E-11-6.89207E-05 2.07286E-11
 -1       129-5.99978E-12-5.03850E-05 5.66794E-11
 -1       130-3.37360E-11-3.37866E-05 3.09393E-11
 -1       131-1.08933E-11-1.97722E-05 8.61664E-12
 -1       132-1.93227E-13-8.98974E-06-1.30059E-11
 -1       133 3.18095E-12-2.11113E-06-4.74239E-12
 -1       134 4.80707E-06-8.87526E-05-3.55196E-08
 -1       135-4.67371E-11-9.89408E-05 7.00644E-11
 -1       136 4.57398E-06-6.89312E-05-6.94513E-08
 -1       137 4.26969E-12-7.87133E-05 1.52346E-11
 -1       138 4.18646E-06-5.04006E-05-1.04123E-07
 -1       139 2.65152E-12-5.94510E-05 3.60830E-11
 -1       140 3.64388E-06-3.38076E-05-1.38779E-07
 -1       141-2.36047E-11-4.18033E-05 5.47748E-11
 -1       142 2.94651E-06-1.97975E-05-1.73720E-07
 -1       143-2.40920E-11-2.64158E-05 2.05016E-11
 -1       144 2.09428E-06-9.02203E-06-2.06071E-07
 -1       145-9.72387E-12-1.39363E-05-2.07477E-12
 -1       146 1.09721E-06-2.12506E-06-2.27360E-07
 -1       147 5.17058E-12-5.01216E-06-4.50121E-12
 -1       148 2.53586E-12-3.77007E-07 1.38579E-12
 -1       149-4.80714E-06-8.87526E-05 3.55904E-08
 -1       150-4.57395E-06-6.89311E-05 6.94871E-08
 -1       151-4.18647E-06-5.04006E-05 1.04226E-07
 -1       152-3.64394E-06-3.38076E-05 1.38854E-07
 -1       153-2.94655E-06-1.97975E-05 1.73739E-07
 -1       154-2.09427E-06-9.02206E-06 2.06047E-07
 -1       155-1.09720E-06-2.12506E-06 2.27354E-07
 -1       156 0.00000E+00 0.00000E+00 0.00000E+00
 -1       157 0.00000E+00 0.00000E+00 0.00000E+00
 -1       158 0.00000E+00 0.00000E+00 0.00000E+00
 -1       159 0.00000E+00 0.00000E+00 0.00000E+00
 -1       160 0.00000E+00 0.00000E+00 0.00000E+00
 -1       161 2.22057E-06-2.59291E-06 4.35526E-11