    1C
    1UHash: 9RuY2957, Date: 01/25/2026, Unit system: M_KG_S_C           
    1UUSER                                                              
    1UDATE              25.january.2026                                 
    1UTIME              23:51:37                                        
    1UHOST                                                              
    1UPGM               CalculiX                                        
    1UVERSION           Version 2.23                             
    1UCOMPILETIME       Sun Jan 11 00:39:44 CET 2026                    
    1UDIR                                                               
    1UDBN                                                               
    1UMAT    1S235                                                      
    2C                           261                                     1
 -1         1-2.50000E-01 4.00000E-02-5.00000E-02
 -1         2-2.50000E-01-4.00000E-02-5.00000E-02
 -1         3 2.50000E-01-4.00000E-02-5.00000E-02
 -1         4 2.50000E-01 4.00000E-02-5.00000E-02
 -1         5 2.50000E-01-4.00000E-02 5.00000E-02
 -1         6 2.50000E-01 4.00000E-02 5.00000E-02
 -1         7-2.50000E-01-4.00000E-02 5.00000E-02
 -1         8-2.50000E-01 4.00000E-02 5.00000E-02
 -1         9-2.50000E-01 6.93889E-18-5.00000E-02
 -1        10-2.50000E-01 2.00000E-02-5.00000E-02
 -1        11-2.50000E-01-2.00000E-02-5.00000E-02
 -1        12-1.87500E-01-4.00000E-02-5.00000E-02
 -1        13-1.25000E-01-4.00000E-02-5.00000E-02
 -1        14-6.25000E-02-4.00000E-02-5.00000E-02
 -1        15 0.00000E+00-4.00000E-02-5.00000E-02
 -1        16 6.25000E-02-4.00000E-02-5.00000E-02
 -1        17 1.25000E-01-4.00000E-02-5.00000E-02
 -1        18 1.87500E-01-4.00000E-02-5.00000E-02
 -1        19-2.18750E-01-4.00000E-02-5.00000E-02
 -1        20-1.56250E-01-4.00000E-02-5.00000E-02
 -1        21-9.37500E-02-4.00000E-02-5.00000E-02
 -1        22-3.12500E-02-4.00000E-02-5.00000E-02
 -1        23 3.12500E-02-4.00000E-02-5.00000E-02
 -1        24 9.37500E-02-4.00000E-02-5.00000E-02
 -1        25 1.56250E-01-4.00000E-02-5.00000E-02
 -1        26 2.18750E-01-4.00000E-02-5.00000E-02
 -1        27 2.50000E-01 6.93889E-18-5.00000E-02
 -1        28 2.50000E-01 2.00000E-02-5.00000E-02
 -1        29 2.50000E-01-2.00000E-02-5.00000E-02
 -1        30-1.87500E-01 4.00000E-02-5.00000E-02
 -1        31-1.25000E-01 4.00000E-02-5.00000E-02
 -1        32-6.25000E-02 4.00000E-02-5.00000E-02
 -1        33 0.00000E+00 4.00000E-02-5.00000E-02
 -1        34 6.25000E-02 4.00000E-02-5.00000E-02
 -1        35 1.25000E-01 4.00000E-02-5.00000E-02
 -1        36 1.87500E-01 4.00000E-02-5.00000E-02
 -1        37-2.18750E-01 4.00000E-02-5.00000E-02
 -1        38-1.56250E-01 4.00000E-02-5.00000E-02
 -1        39-9.37500E-02 4.00000E-02-5.00000E-02
 -1        40-3.12500E-02 4.00000E-02-5.00000E-02
 -1        41 3.12500E-02 4.00000E-02-5.00000E-02
 -1        42 9.37500E-02 4.00000E-02-5.00000E-02
 -1        43 1.56250E-01 4.00000E-02-5.00000E-02
 -1        44 2.18750E-01 4.00000E-02-5.00000E-02
 -1        45 2.50000E-01-4.00000E-02 3.46945E-17
 -1        46 2.50000E-01-4.00000E-02-2.50000E-02
 -1        47 2.50000E-01-4.00000E-02 2.50000E-02
 -1        48 2.50000E-01 6.93889E-18 5.00000E-02
 -1        49 2.50000E-01 2.00000E-02 5.00000E-02
 -1        50 2.50000E-01-2.00000E-02 5.00000E-02
 -1        51 2.50000E-01 4.00000E-02 3.46945E-17
 -1        52 2.50000E-01 4.00000E-02-2.50000E-02
 -1        53 2.50000E-01 4.00000E-02 2.50000E-02
 -1        54 1.87500E-01-4.00000E-02 5.00000E-02
 -1        55 1.25000E-01-4.00000E-02 5.00000E-02
 -1        56 6.25000E-02-4.00000E-02 5.00000E-02
 -1        57 0.00000E+00-4.00000E-02 5.00000E-02
 -1        58-6.25000E-02-4.00000E-02 5.00000E-02
 -1        59-1.25000E-01-4.00000E-02 5.00000E-02
 -1        60-1.87500E-01-4.00000E-02 5.00000E-02
 -1        61 2.18750E-01-4.00000E-02 5.00000E-02
 -1        62 1.56250E-01-4.00000E-02 5.00000E-02
 -1        63 9.37500E-02-4.00000E-02 5.00000E-02
 -1        64 3.12500E-02-4.00000E-02 5.00000E-02
 -1        65-3.12500E-02-4.00000E-02 5.00000E-02
 -1        66-9.37500E-02-4.00000E-02 5.00000E-02
 -1        67-1.56250E-01-4.00000E-02 5.00000E-02
 -1        68-2.18750E-01-4.00000E-02 5.00000E-02
 -1        69-2.50000E-01 6.93889E-18 5.00000E-02
 -1        70-2.50000E-01 2.00000E-02 5.00000E-02
 -1        71-2.50000E-01-2.00000E-02 5.00000E-02
 -1        72 1.87500E-01 4.00000E-02 5.00000E-02
 -1        73 1.25000E-01 4.00000E-02 5.00000E-02
 -1        74 6.25000E-02 4.00000E-02 5.00000E-02
 -1        75 0.00000E+00 4.00000E-02 5.00000E-02
 -1        76-6.25000E-02 4.00000E-02 5.00000E-02
 -1        77-1.25000E-01 4.00000E-02 5.00000E-02
 -1        78-1.87500E-01 4.00000E-02 5.00000E-02
 -1        79 2.18750E-01 4.00000E-02 5.00000E-02
 -1        80 1.56250E-01 4.00000E-02 5.00000E-02
 -1        81 9.37500E-02 4.00000E-02 5.00000E-02
 -1        82 3.12500E-02 4.00000E-02 5.00000E-02
 -1        83-3.12500E-02 4.00000E-02 5.00000E-02
 -1        84-9.37500E-02 4.00000E-02 5.00000E-02
 -1        85-1.56250E-01 4.00000E-02 5.00000E-02
 -1        86-2.18750E-01 4.00000E-02 5.00000E-02
 -1        87-2.50000E-01-4.00000E-02-3.46945E-17
 -1        88-2.50000E-01-4.00000E-02 2.50000E-02
 -1        89-2.50000E-01-4.00000E-02-2.50000E-02
 -1        90-2.50000E-01 4.00000E-02-3.46945E-17
 -1        91-2.50000E-01 4.00000E-02 2.50000E-02
 -1        92-2.50000E-01 4.00000E-02-2.50000E-02
 -1        93-1.87500E-01 0.00000E+00-5.00000E-02
 -1        94-1.25000E-01 6.93889E-18-5.00000E-02
 -1        95-6.25000E-02 6.93889E-18-5.00000E-02
 -1        96 0.00000E+00 6.93889E-18-5.00000E-02
 -1        97 6.25000E-02 6.93889E-18-5.00000E-02
 -1        98 1.25000E-01 6.93889E-18-5.00000E-02
 -1        99 1.87500E-01 0.00000E+00-5.00000E-02
 -1       100-1.87500E-01 2.00000E-02-5.00000E-02
 -1       101-2.18750E-01 3.46945E-18-5.00000E-02
 -1       102-1.25000E-01 2.00000E-02-5.00000E-02
 -1       103-1.56250E-01 3.46945E-18-5.00000E-02
 -1       104-6.25000E-02 2.00000E-02-5.00000E-02
 -1       105-9.37500E-02 6.93889E-18-5.00000E-02
 -1       106 0.00000E+00 2.00000E-02-5.00000E-02
 -1       107-3.12500E-02 6.93889E-18-5.00000E-02
 -1       108 6.25000E-02 2.00000E-02-5.00000E-02
 -1       109 3.12500E-02 6.93889E-18-5.00000E-02
 -1       110 1.25000E-01 2.00000E-02-5.00000E-02
 -1       111 9.37500E-02 6.93889E-18-5.00000E-02
 -1       112 1.87500E-01 2.00000E-02-5.00000E-02
 -1       113 1.56250E-01 3.46945E-18-5.00000E-02
 -1       114 2.18750E-01 3.46945E-18-5.00000E-02
 -1       115-1.87500E-01-2.00000E-02-5.00000E-02
 -1       116-1.25000E-01-2.00000E-02-5.00000E-02
 -1       117-6.25000E-02-2.00000E-02-5.00000E-02
 -1       118 0.00000E+00-2.00000E-02-5.00000E-02
 -1       119 6.25000E-02-2.00000E-02-5.00000E-02
 -1       120 1.25000E-01-2.00000E-02-5.00000E-02
 -1       121 1.87500E-01-2.00000E-02-5.00000E-02
 -1       122 2.50000E-01 1.38778E-17 3.46945E-17
 -1       123 2.50000E-01 2.00000E-02 3.46945E-17
 -1       124 2.50000E-01 1.04083E-17-2.50000E-02
 -1       125 2.50000E-01 1.04083E-17 2.50000E-02
 -1       126 2.50000E-01-2.00000E-02 3.46945E-17
 -1       127 1.87500E-01 0.00000E+00 5.00000E-02
 -1       128 1.25000E-01 6.93889E-18 5.00000E-02
 -1       129 6.25000E-02 6.93889E-18 5.00000E-02
 -1       130 0.00000E+00 6.93889E-18 5.00000E-02
 -1       131-6.25000E-02 6.93889E-18 5.00000E-02
 -1       132-1.25000E-01 6.93889E-18 5.00000E-02
 -1       133-1.87500E-01 0.00000E+00 5.00000E-02
 -1       134 1.87500E-01 2.00000E-02 5.00000E-02
 -1       135 2.18750E-01 3.46945E-18 5.00000E-02
 -1       136 1.25000E-01 2.00000E-02 5.00000E-02
 -1       137 1.56250E-01 3.46945E-18 5.00000E-02
 -1       138 6.25000E-02 2.00000E-02 5.00000E-02
 -1       139 9.37500E-02 6.93889E-18 5.00000E-02
 -1       140 0.00000E+00 2.00000E-02 5.00000E-02
 -1       141 3.12500E-02 6.93889E-18 5.00000E-02
 -1       142-6.25000E-02 2.00000E-02 5.00000E-02
 -1       143-3.12500E-02 6.93889E-18 5.00000E-02
 -1       144-1.25000E-01 2.00000E-02 5.00000E-02
 -1       145-9.37500E-02 6.93889E-18 5.00000E-02
 -1       146-1.87500E-01 2.00000E-02 5.00000E-02
 -1       147-1.56250E-01 3.46945E-18 5.00000E-02
 -1       148-2.18750E-01 3.46945E-18 5.00000E-02
 -1       149 1.87500E-01-2.00000E-02 5.00000E-02
 -1       150 1.25000E-01-2.00000E-02 5.00000E-02
 -1       151 6.25000E-02-2.00000E-02 5.00000E-02
 -1       152 0.00000E+00-2.00000E-02 5.00000E-02
 -1       153-6.25000E-02-2.00000E-02 5.00000E-02
 -1       154-1.25000E-01-2.00000E-02 5.00000E-02
 -1       155-1.87500E-01-2.00000E-02 5.00000E-02
 -1       156-2.50000E-01-6.93889E-18-4.85723E-17
 -1       157-2.50000E-01 2.00000E-02-4.16334E-17
 -1       158-2.50000E-01 0.00000E+00 2.50000E-02
 -1       159-2.50000E-01 0.00000E+00-2.50000E-02
 -1       160-2.50000E-01-2.00000E-02-4.16334E-17
 -1       161-1.87500E-01 4.00000E-02-2.68882E-17
 -1       162-1.25000E-01 4.00000E-02-1.56125E-17
 -1       163-6.25000E-02 4.00000E-02-8.67362E-18
 -1       164-5.78241E-18 4.00000E-02 2.28030E-31
 -1       165 6.25000E-02 4.00000E-02 8.67362E-18
 -1       166 1.25000E-01 4.00000E-02 1.73472E-17
 -1       167 1.87500E-01 4.00000E-02 2.60209E-17
 -1       168-1.87500E-01 4.00000E-02 2.50000E-02
 -1       169-2.18750E-01 4.00000E-02-3.07913E-17
 -1       170-1.25000E-01 4.00000E-02 2.50000E-02
 -1       171-1.56250E-01 4.00000E-02-2.12504E-17
 -1       172-6.25000E-02 4.00000E-02 2.50000E-02
 -1       173-9.37500E-02 4.00000E-02-1.21431E-17
 -1       174-2.89121E-18 4.00000E-02 2.50000E-02
 -1       175-3.12500E-02 4.00000E-02-4.33681E-18
 -1       176 6.25000E-02 4.00000E-02 2.50000E-02
 -1       177 3.12500E-02 4.00000E-02 4.33681E-18
 -1       178 1.25000E-01 4.00000E-02 2.50000E-02
 -1       179 9.37500E-02 4.00000E-02 1.30104E-17
 -1       180 1.87500E-01 4.00000E-02 2.50000E-02
 -1       181 1.56250E-01 4.00000E-02 2.16840E-17
 -1       182 2.18750E-01 4.00000E-02 3.03577E-17
 -1       183-1.87500E-01 4.00000E-02-2.50000E-02
 -1       184-1.25000E-01 4.00000E-02-2.50000E-02
 -1       185-6.25000E-02 4.00000E-02-2.50000E-02
 -1       186-2.89121E-18 4.00000E-02-2.50000E-02
 -1       187 6.25000E-02 4.00000E-02-2.50000E-02
 -1       188 1.25000E-01 4.00000E-02-2.50000E-02
 -1       189 1.87500E-01 4.00000E-02-2.50000E-02
 -1       190-1.87500E-01-4.00000E-02-2.51535E-17
 -1       191-1.25000E-01-4.00000E-02-1.90820E-17
 -1       192-6.25000E-02-4.00000E-02-8.67362E-18
 -1       193-5.78241E-18-4.00000E-02-2.28030E-31
 -1       194 6.25000E-02-4.00000E-02 1.04083E-17
 -1       195 1.25000E-01-4.00000E-02 1.38778E-17
 -1       196 1.87500E-01-4.00000E-02 2.60209E-17
 -1       197-2.18750E-01-4.00000E-02-2.99240E-17
 -1       198-1.87500E-01-4.00000E-02 2.50000E-02
 -1       199-1.56250E-01-4.00000E-02-2.21177E-17
 -1       200-1.25000E-01-4.00000E-02 2.50000E-02
 -1       201-9.37500E-02-4.00000E-02-1.38778E-17
 -1       202-6.25000E-02-4.00000E-02 2.50000E-02
 -1       203-3.12500E-02-4.00000E-02-4.33681E-18
 -1       204-2.89121E-18-4.00000E-02 2.50000E-02
 -1       205 3.12500E-02-4.00000E-02 5.20417E-18
 -1       206 6.25000E-02-4.00000E-02 2.50000E-02
 -1       207 9.37500E-02-4.00000E-02 1.21431E-17
 -1       208 1.25000E-01-4.00000E-02 2.50000E-02
 -1       209 1.56250E-01-4.00000E-02 1.99493E-17
 -1       210 1.87500E-01-4.00000E-02 2.50000E-02
 -1       211 2.18750E-01-4.00000E-02 3.03577E-17
 -1       212-1.87500E-01-4.00000E-02-2.50000E-02
 -1       213-1.25000E-01-4.00000E-02-2.50000E-02
 -1       214-6.25000E-02-4.00000E-02-2.50000E-02
 -1       215-2.89121E-18-4.00000E-02-2.50000E-02
 -1       216 6.25000E-02-4.00000E-02-2.50000E-02
 -1       217 1.25000E-01-4.00000E-02-2.50000E-02
 -1       218 1.87500E-01-4.00000E-02-2.50000E-02
 -1       219-1.87500E-01-1.30104E-18-4.44523E-17
 -1       220-1.25000E-01 3.46945E-18-3.85976E-17
 -1       221-6.25000E-02 3.46945E-18-2.08167E-17
 -1       222 0.00000E+00 3.46945E-18-7.80626E-18
 -1       223 6.25000E-02 8.67362E-19 3.46945E-18
 -1       224 1.25000E-01 0.00000E+00 6.93889E-18
 -1       225 1.87500E-01-3.46945E-18 1.56125E-17
 -1       226-1.87500E-01-6.50521E-19-2.50000E-02
 -1       227-2.18750E-01-4.11997E-18-4.65123E-17
 -1       228-1.87500E-01 2.00000E-02-3.56703E-17
 -1       229-1.87500E-01-6.50521E-19 2.50000E-02
 -1       230-1.25000E-01 5.20417E-18-2.50000E-02
 -1       231-1.56250E-01 1.08420E-18-4.15249E-17
 -1       232-1.25000E-01 2.00000E-02-2.71051E-17
 -1       233-1.25000E-01 5.20417E-18 2.50000E-02
 -1       234-6.25000E-02 5.20417E-18-2.50000E-02
 -1       235-9.37500E-02 3.46945E-18-2.97071E-17
 -1       236-6.25000E-02 2.00000E-02-1.47451E-17
 -1       237-6.25000E-02 5.20417E-18 2.50000E-02
 -1       238 0.00000E+00 5.20417E-18-2.50000E-02
 -1       239-3.12500E-02 3.46945E-18-1.43115E-17
 -1       240-2.89121E-18 2.00000E-02-3.90313E-18
 -1       241 0.00000E+00 5.20417E-18 2.50000E-02
 -1       242 6.25000E-02 3.90313E-18-2.50000E-02
 -1       243 3.12500E-02 2.16840E-18-2.16840E-18
 -1       244 6.25000E-02 2.00000E-02 6.07153E-18
 -1       245 6.25000E-02 3.90313E-18 2.50000E-02
 -1       246 1.25000E-01 3.46945E-18-2.50000E-02
 -1       247 9.37500E-02 4.33681E-19 5.20417E-18
 -1       248 1.25000E-01 2.00000E-02 1.21431E-17
 -1       249 1.25000E-01 3.46945E-18 2.50000E-02
 -1       250 1.87500E-01-1.73472E-18-2.50000E-02
 -1       251 1.56250E-01-1.73472E-18 1.12757E-17
 -1       252 1.87500E-01 2.00000E-02 2.08167E-17
 -1       253 1.87500E-01-1.73472E-18 2.50000E-02
 -1       254 2.18750E-01 5.20417E-18 2.51535E-17
 -1       255-1.87500E-01-2.00000E-02-3.48029E-17
 -1       256-1.25000E-01-2.00000E-02-2.88398E-17
 -1       257-6.25000E-02-2.00000E-02-1.47451E-17
 -1       258-2.89121E-18-2.00000E-02-3.90313E-18
 -1       259 6.25000E-02-2.00000E-02 6.93889E-18
 -1       260 1.25000E-01-2.00000E-02 1.04083E-17
 -1       261 1.87500E-01-2.00000E-02 2.08167E-17
 -3
    3C                            32                                     1
 -1         1    4    0    1
 -2         1         9        93        30        90       156       219       161        10       101
 -2       100        37        92       159       226       183       157       227       228       169
 -1         2    4    0    1
 -2        90       156       219       161         8        69       133        78       157       227
 -2       228       169        91       158       229       168        70       148       146        86
 -1         3    4    0    1
 -2        30        93        94        31       161       219       220       162       100       103
 -2       102        38       183       226       230       184       228       231       232       171
 -1         4    4    0    1
 -2       161       219       220       162        78       133       132        77       228       231
 -2       232       171       168       229       233       170       146       147       144        85
 -1         5    4    0    1
 -2        31        94        95        32       162       220       221       163       102       105
 -2       104        39       184       230       234       185       232       235       236       173
 -1         6    4    0    1
 -2       162       220       221       163        77       132       131        76       232       235
 -2       236       173       170       233       237       172       144       145       142        84
 -1         7    4    0    1
 -2        32        95        96        33       163       221       222       164       104       107
 -2       106        40       185       234       238       186       236       239       240       175
 -1         8    4    0    1
 -2       163       221       222       164        76       131       130        75       236       239
 -2       240       175       172       237       241       174       142       143       140        83
 -1         9    4    0    1
 -2        33        96        97        34       164       222       223       165       106       109
 -2       108        41       186       238       242       187       240       243       244       177
 -1        10    4    0    1
 -2       164       222       223       165        75       130       129        74       240       243
 -2       244       177       174       241       245       176       140       141       138        82
 -1        11    4    0    1
 -2        34        97        98        35       165       223       224       166       108       111
 -2       110        42       187       242       246       188       244       247       248       179
 -1        12    4    0    1
 -2       165       223       224       166        74       129       128        73       244       247
 -2       248       179       176       245       249       178       138       139       136        81
 -1        13    4    0    1
 -2        35        98        99        36       166       224       225       167       110       113
 -2       112        43       188       246       250       189       248       251       252       181
 -1        14    4    0    1
 -2       166       224       225       167        73       128       127        72       248       251
 -2       252       181       178       249       253       180       136       137       134        80
 -1        15    4    0    1
 -2        36        99        27         4       167       225       122        51       112       114
 -2        28        44       189       250       124        52       252       254       123       182
 -1        16    4    0    1
 -2       167       225       122        51        72       127        48         6       252       254
 -2       123       182       180       253       125        53       134       135        49        79
 -1        17    4    0    1
 -2         9         2        12        93       156        87       190       219        11        19
 -2       115       101       159        89       212       226       160       197       255       227
 -1        18    4    0    1
 -2       156        87       190       219        69         7        60       133       160       197
 -2       255       227       158        88       198       229        71        68       155       148
 -1        19    4    0    1
 -2        93        12        13        94       219       190       191       220       115        20
 -2       116       103       226       212       213       230       255       199       256       231
 -1        20    4    0    1
 -2       219       190       191       220       133        60        59       132       255       199
 -2       256       231       229       198       200       233       155        67       154       147
 -1        21    4    0    1
 -2        94        13        14        95       220       191       192       221       116        21
 -2       117       105       230       213       214       234       256       201       257       235
 -1        22    4    0    1
 -2       220       191       192       221       132        59        58       131       256       201
 -2       257       235       233       200       202       237       154        66       153       145
 -1        23    4    0    1
 -2        95        14        15        96       221       192       193       222       117        22
 -2       118       107       234       214       215       238       257       203       258       239
 -1        24    4    0    1
 -2       221       192       193       222       131        58        57       130       257       203
 -2       258       239       237       202       204       241       153        65       152       143
 -1        25    4    0    1
 -2        96        15        16        97       222       193       194       223       118        23
 -2       119       109       238       215       216       242       258       205       259       243
 -1        26    4    0    1
 -2       222       193       194       223       130        57        56       129       258       205
 -2       259       243       241       204       206       245       152        64       151       141
 -1        27    4    0    1
 -2        97        16        17        98       223       194       195       224       119        24
 -2       120       111       242       216       217       246       259       207       260       247
 -1        28    4    0    1
 -2       223       194       195       224       129        56        55       128       259       207
 -2       260       247       245       206       208       249       151        63       150       139
 -1        29    4    0    1
 -2        98        17        18        99       224       195       196       225       120        25
 -2       121       113       246       217       218       250       260       209       261       251
 -1        30    4    0    1
 -2       224       195       196       225       128        55        54       127       260       209
 -2       261       251       249       208       210       253       150        62       149       137
 -1        31    4    0    1
 -2        99        18         3        27       225       196        45       122       121        26
 -2        29       114       250       218        46       124       261       211       126       254
 -1        32    4    0    1
 -2       225       196        45       122       127        54         5        48       261       211
 -2       126       254       253       210        47       125       149        61        50       135
 -3
    1PSTEP                         1           1           1          
  100CL  101 1.000000000         261                     0    1           1
 -4  DISP        4    1
 -5  D1          1    2    1    0
 -5  D2          1    2    2    0
 -5  D3          1    2    3    0
 -5  ALL         1    2    0    0    1ALL
 -1         1 0.00000E+00 0.00000E+00 0.00000E+00
 -1         2 0.00000E+00 0.00000E+00 0.00000E+00
 -1         3-5.50529E-06-4.64876E-05 8.12084E-08
 -1         4 5.52720E-06-4.64877E-05 9.22385E-08
 -1         5-5.52711E-06-4.64885E-05 9.15063E-08
 -1         6 5.50535E-06-4.64885E-05 8.19637E-08
 -1         7 0.00000E+00 0.00000E+00 0.00000E+00
 -1         8 0.00000E+00 0.00000E+00 0.00000E+00
 -1         9 0.00000E+00 0.00000E+00 0.00000E+00
 -1        10 0.00000E+00 0.00000E+00 0.00000E+00
 -1        11 0.00000E+00 0.00000E+00 0.00000E+00
 -1        12-1.24278E-06-1.01560E-06-2.53403E-07
 -1        13-2.36951E-06-3.96567E-06-2.24104E-07
 -1        14-3.32382E-06-8.55623E-06-1.75146E-07
 -1        15-4.10793E-06-1.45069E-05-1.24187E-07
 -1        16-4.71734E-06-2.15480E-05-7.18289E-08
 -1        17-5.15312E-06-2.94064E-05-1.91366E-08
 -1        18-5.41481E-06-3.78097E-05 3.32390E-08
 -1        19-6.18765E-07-2.82878E-07-2.30424E-07
 -1        20-1.82744E-06-2.27098E-06-2.45412E-07
 -1        21-2.86636E-06-6.07456E-06-2.00075E-07
 -1        22-3.73701E-06-1.13782E-05-1.49886E-07
 -1        23-4.43352E-06-1.79083E-05-9.80973E-08
 -1        24-4.95622E-06-2.53920E-05-4.55073E-08
 -1        25-5.30478E-06-3.35569E-05 7.27974E-09
 -1        26-5.47986E-06-4.21281E-05 5.77321E-08
 -1        27 1.09166E-08-4.64752E-05 8.67089E-08
 -1        28 2.75556E-06-4.64811E-05 8.79056E-08
 -1        29-2.73368E-06-4.64811E-05 8.55292E-08
 -1        30 1.25024E-06-1.01676E-06 2.59581E-07
 -1        31 2.38276E-06-3.96655E-06 2.44630E-07
 -1        32 3.34113E-06-8.55687E-06 2.15901E-07
 -1        33 4.12778E-06-1.45072E-05 1.89117E-07
 -1        34 4.73858E-06-2.15482E-05 1.63214E-07
 -1        35 5.17491E-06-2.94065E-05 1.37762E-07
 -1        36 5.43672E-06-3.78097E-05 1.12876E-07
 -1        37 6.22581E-07-2.84143E-07 2.32506E-07
 -1        38 1.83804E-06-2.27202E-06 2.57886E-07
 -1        39 2.88182E-06-6.07526E-06 2.30128E-07
 -1        40 3.75576E-06-1.13786E-05 2.02354E-07
 -1        41 4.45420E-06-1.79085E-05 1.76085E-07
 -1        42 4.97782E-06-2.53921E-05 1.50473E-07
 -1        43 5.32665E-06-3.35569E-05 1.25109E-07
 -1        44 5.50178E-06-4.21281E-05 1.02076E-07
 -1        45-5.52383E-06-4.64980E-05 8.63674E-08
 -1        46-5.51760E-06-4.64944E-05 8.24872E-08
 -1        47-5.52848E-06-4.64948E-05 9.02279E-08
 -1        48-1.08942E-08-4.64761E-05 8.67409E-08
 -1        49 2.73375E-06-4.64820E-05 8.59133E-08
 -1        50-2.75552E-06-4.64820E-05 8.75669E-08
 -1        51 5.52389E-06-4.64981E-05 8.71157E-08
 -1        52 5.52860E-06-4.64944E-05 9.09804E-08
 -1        53 5.51764E-06-4.64948E-05 8.32462E-08
 -1        54-5.43664E-06-3.78106E-05 1.12142E-07
 -1        55-5.17485E-06-2.94073E-05 1.37159E-07
 -1        56-4.73851E-06-2.15490E-05 1.62520E-07
 -1        57-4.12769E-06-1.45081E-05 1.88446E-07
 -1        58-3.34106E-06-8.55785E-06 2.15131E-07
 -1        59-2.38274E-06-3.96748E-06 2.43881E-07
 -1        60-1.25026E-06-1.01731E-06 2.59143E-07
 -1        61-5.50170E-06-4.21290E-05 1.01328E-07
 -1        62-5.32658E-06-3.35577E-05 1.24452E-07
 -1        63-4.97775E-06-2.53929E-05 1.49802E-07
 -1        64-4.45411E-06-1.79094E-05 1.75379E-07
 -1        65-3.75567E-06-1.13796E-05 2.01641E-07
 -1        66-2.88179E-06-6.07626E-06 2.29333E-07
 -1        67-1.83804E-06-2.27276E-06 2.57288E-07
 -1        68-6.22627E-07-2.84384E-07 2.32306E-07
 -1        69 0.00000E+00 0.00000E+00 0.00000E+00
 -1        70 0.00000E+00 0.00000E+00 0.00000E+00
 -1        71 0.00000E+00 0.00000E+00 0.00000E+00
 -1        72 5.41483E-06-3.78106E-05 3.39671E-08
 -1        73 5.15321E-06-2.94073E-05-1.84298E-08
 -1        74 4.71739E-06-2.15488E-05-7.12045E-08
 -1        75 4.10799E-06-1.45078E-05-1.23416E-07
 -1        76 3.32388E-06-8.55724E-06-1.74361E-07
 -1        77 2.36959E-06-3.96656E-06-2.23423E-07
 -1        78 1.24284E-06-1.01611E-06-2.53020E-07
 -1        79 5.47989E-06-4.21290E-05 5.84666E-08
 -1        80 5.30481E-06-3.35577E-05 7.97079E-09
 -1        81 4.95629E-06-2.53928E-05-4.48450E-08
 -1        82 4.43357E-06-1.79092E-05-9.74052E-08
 -1        83 3.73708E-06-1.13792E-05-1.49076E-07
 -1        84 2.86641E-06-6.07549E-06-1.99343E-07
 -1        85 1.82753E-06-2.27173E-06-2.44832E-07
 -1        86 6.18805E-07-2.83134E-07-2.30231E-07
 -1        87 0.00000E+00 0.00000E+00 0.00000E+00
 -1        88 0.00000E+00 0.00000E+00 0.00000E+00
 -1        89 0.00000E+00 0.00000E+00 0.00000E+00
 -1        90 0.00000E+00 0.00000E+00 0.00000E+00
 -1        91 0.00000E+00 0.00000E+00 0.00000E+00
 -1        92 0.00000E+00 0.00000E+00 0.00000E+00
 -1        93 3.77065E-09-9.22314E-07 3.31602E-09
 -1        94 6.64628E-09-3.87468E-06 1.04084E-08
 -1        95 8.66463E-09-8.47830E-06 2.04923E-08
 -1        96 9.94142E-09-1.44446E-05 3.25475E-08
 -1        97 1.06259E-08-2.15012E-05 4.57255E-08
 -1        98 1.09141E-08-2.93751E-05 5.93487E-08
 -1        99 1.09515E-08-3.77930E-05 7.30688E-08
 -1       100 6.19055E-07-9.33945E-07 1.33534E-07
 -1       101 1.83304E-09-1.55714E-07 1.25590E-09
 -1       102 1.18199E-06-3.89939E-06 1.27287E-07
 -1       103 5.33152E-09-2.16997E-06 6.43634E-09
 -1       104 1.66356E-06-8.49748E-06 1.18336E-07
 -1       105 7.74726E-09-5.98874E-06 1.51523E-08
 -1       106 2.05711E-06-1.44605E-05 1.10809E-07
 -1       107 9.38918E-09-1.13081E-05 2.63368E-08
 -1       108 2.36298E-06-2.15130E-05 1.04477E-07
 -1       109 1.03479E-08-1.78537E-05 3.90402E-08
 -1       110 2.58119E-06-2.93830E-05 9.85284E-08
 -1       111 1.08015E-08-2.53530E-05 5.24948E-08
 -1       112 2.71249E-06-3.77975E-05 9.31143E-08
 -1       113 1.09663E-08-3.35334E-05 6.62020E-08
 -1       114 1.09377E-08-4.21220E-05 7.99028E-08
 -1       115-6.11564E-07-9.33392E-07-1.26986E-07
 -1       116-1.16870E-06-3.89895E-06-1.06550E-07
 -1       117-1.64623E-06-8.49716E-06-7.74040E-08
 -1       118-2.03723E-06-1.44603E-05-4.57703E-08
 -1       119-2.34173E-06-2.15129E-05-1.30596E-08
 -1       120-2.55938E-06-2.93829E-05 2.01331E-08
 -1       121-2.69057E-06-3.77975E-05 5.30161E-08
 -1       122 4.28734E-11-4.64868E-05 8.67544E-08
 -1       123 2.75034E-06-4.64923E-05 8.69271E-08
 -1       124 5.48251E-09-4.64817E-05 8.67237E-08
 -1       125-5.43146E-09-4.64821E-05 8.67665E-08
 -1       126-2.75029E-06-4.64923E-05 8.65508E-08
 -1       127-1.09046E-08-3.77939E-05 7.30560E-08
 -1       128-1.08207E-08-2.93759E-05 5.93681E-08
 -1       129-1.05765E-08-2.15020E-05 4.57070E-08
 -1       130-9.89514E-09-1.44455E-05 3.25772E-08
 -1       131-8.61006E-09-8.47930E-06 2.05284E-08
 -1       132-6.60141E-09-3.87558E-06 1.04347E-08
 -1       133-3.75514E-09-9.22853E-07 3.34320E-09
 -1       134 2.69062E-06-3.77984E-05 5.33683E-08
 -1       135-1.08979E-08-4.21229E-05 7.98959E-08
 -1       136 2.55945E-06-2.93838E-05 2.04756E-08
 -1       137-1.08552E-08-3.35342E-05 6.61897E-08
 -1       138 2.34179E-06-2.15137E-05-1.27480E-08
 -1       139-1.07571E-08-2.53539E-05 5.25061E-08
 -1       140 2.03728E-06-1.44612E-05-4.53841E-08
 -1       141-1.02738E-08-1.78546E-05 3.90412E-08
 -1       142 1.64629E-06-8.49817E-06-7.70022E-08
 -1       143-9.35589E-09-1.13091E-05 2.63459E-08
 -1       144 1.16874E-06-3.89984E-06-1.06204E-07
 -1       145-7.70634E-09-5.98970E-06 1.51544E-08
 -1       146 6.11553E-07-9.33904E-07-1.26773E-07
 -1       147-5.27876E-09-2.17070E-06 6.44282E-09
 -1       148-1.83823E-09-1.55970E-07 1.25769E-09
 -1       149-2.71243E-06-3.77984E-05 9.27266E-08
 -1       150-2.58112E-06-2.93838E-05 9.82253E-08
 -1       151-2.36292E-06-2.15138E-05 1.04137E-07
 -1       152-2.05705E-06-1.44613E-05 1.10479E-07
 -1       153-1.66351E-06-8.49848E-06 1.17966E-07
 -1       154-1.18195E-06-3.90031E-06 1.26943E-07
 -1       155-6.19004E-07-9.34504E-07 1.33332E-07
 -1       156 0.00000E+00 0.00000E+00 0.00000E+00
 -1       157 0.00000E+00 0.00000E+00 0.00000E+00
 -1       158 0.00000E+00 0.00000E+00 0.00000E+00
 -1       159 0.00000E+00 0.00000E+00 0.00000E+00
 -1       160 0.00000E+00 0.00000E+00 0.00000E+00
 -1       161 1.25403E-06-1.17436E-06 2.96096E-09