    1C
    1UHash: v5AunGqV, Date: 01/14/2026, Unit system: M_KG_S_C           
    1UUSER                                                              
    1UDATE              17.january.2026                                 
    1UTIME              13:02:39                                        
    1UHOST                                                              
    1UPGM               CalculiX                                        
    1UVERSION           Version 2.23                             
    1UCOMPILETIME       Sun Jan 11 00:39:44 CET 2026                    
    1UDIR                                                               
    1UDBN                                                               
    1UMAT    1S235                                                      
    2C                            32                                     1
 -1         1-2.50000E-01 4.00000E-02-5.00000E-02
 -1         2-2.50000E-01-4.00000E-02-5.00000E-02
 -1         3 2.50000E-01-4.00000E-02-5.00000E-02
 -1         4 2.50000E-01 4.00000E-02-5.00000E-02
 -1         5 2.50000E-01-4.00000E-02 5.00000E-02
 -1         6 2.50000E-01 4.00000E-02 5.00000E-02
 -1         7-2.50000E-01-4.00000E-02 5.00000E-02
 -1         8-2.50000E-01 4.00000E-02 5.00000E-02
 -1         9-2.50000E-01 0.00000E+00-5.00000E-02
 -1        10 0.00000E+00-4.00000E-02-5.00000E-02
 -1        11-1.25000E-01-4.00000E-02-5.00000E-02
 -1        12 1.25000E-01-4.00000E-02-5.00000E-02
 -1        13 2.50000E-01 0.00000E+00-5.00000E-02
 -1        14 0.00000E+00 4.00000E-02-5.00000E-02
 -1        15-1.25000E-01 4.00000E-02-5.00000E-02
 -1        16 1.25000E-01 4.00000E-02-5.00000E-02
 -1        17 2.50000E-01-4.00000E-02 0.00000E+00
 -1        18 2.50000E-01 0.00000E+00 5.00000E-02
 -1        19 2.50000E-01 4.00000E-02 0.00000E+00
 -1        20 0.00000E+00-4.00000E-02 5.00000E-02
 -1        21 1.25000E-01-4.00000E-02 5.00000E-02
 -1        22-1.25000E-01-4.00000E-02 5.00000E-02
 -1        23-2.50000E-01 0.00000E+00 5.00000E-02
 -1        24 0.00000E+00 4.00000E-02 5.00000E-02
 -1        25 1.25000E-01 4.00000E-02 5.00000E-02
 -1        26-1.25000E-01 4.00000E-02 5.00000E-02
 -1        27-2.50000E-01-4.00000E-02 0.00000E+00
 -1        28-2.50000E-01 4.00000E-02 0.00000E+00
 -1        29 0.00000E+00 0.00000E+00-5.00000E-02
 -1        30 0.00000E+00 0.00000E+00 5.00000E-02
 -1        31 0.00000E+00 4.00000E-02 0.00000E+00
 -1        32 0.00000E+00-4.00000E-02 0.00000E+00
 -3
    3C                             2                                     1
 -1         1    4    0    1
 -2         1         2        10        14         8         7        20        24         9        11
 -2        29        15        28        27        32        31        23        22        30        26
 -1         2    4    0    1
 -2        14        10         3         4        24        20         5         6        29        12
 -2        13        16        31        32        17        19        30        21        18        25
 -3
    1PSTEP                         1           1           1          
  100CL  101 1.000000000          32                     0    1           1
 -4  DISP        4    1
 -5  D1          1    2    1    0
 -5  D2          1    2    2    0
 -5  D3          1    2    3    0
 -5  ALL         1    2    0    0    1ALL
 -1         1 0.00000E+00 0.00000E+00 0.00000E+00
 -1         2 0.00000E+00 0.00000E+00 0.00000E+00
 -1         3-5.31840E-06-4.28947E-05-3.12157E-08
 -1         4 5.31850E-06-4.28947E-05 3.15620E-08
 -1         5-5.31848E-06-4.28945E-05 3.16592E-08
 -1         6 5.31843E-06-4.28946E-05-3.13216E-08
 -1         7 0.00000E+00 0.00000E+00 0.00000E+00
 -1         8 0.00000E+00 0.00000E+00 0.00000E+00
 -1         9 0.00000E+00 0.00000E+00 0.00000E+00
 -1        10-3.84849E-06-1.28797E-05-1.29474E-07
 -1        11-2.03959E-06-3.42724E-06-2.40470E-07
 -1        12-4.80811E-06-2.67460E-05-8.35476E-08
 -1        13 4.54459E-11-4.29028E-05 1.71211E-10
 -1        14 3.84854E-06-1.28797E-05 1.29514E-07
 -1        15 2.03959E-06-3.42725E-06 2.40481E-07
 -1        16 4.80820E-06-2.67460E-05 8.37226E-08
 -1        17-5.31609E-06-4.28869E-05 2.20201E-10
 -1        18-1.93680E-11-4.29027E-05 1.65944E-10
 -1        19 5.31612E-06-4.28869E-05 1.18807E-10
 -1        20-3.84852E-06-1.28796E-05 1.29594E-07
 -1        21-4.80818E-06-2.67459E-05 8.38178E-08
 -1        22-2.03959E-06-3.42718E-06 2.40537E-07
 -1        23 0.00000E+00 0.00000E+00 0.00000E+00
 -1        24 3.84851E-06-1.28796E-05-1.29555E-07
 -1        25 4.80814E-06-2.67459E-05-8.36452E-08
 -1        26 2.03961E-06-3.42716E-06-2.40527E-07
 -1        27 0.00000E+00 0.00000E+00 0.00000E+00
 -1        28 0.00000E+00 0.00000E+00 0.00000E+00
 -1        29 2.84592E-11-1.27857E-05 2.08355E-11
 -1        30-8.80594E-12-1.27856E-05 2.02402E-11
 -1        31 3.85999E-06-1.30222E-05-2.10727E-11
 -1        32-3.85997E-06-1.30222E-05 5.82080E-11
 -3
    1PSTEP                         2           1           1          
  100CL  101 1.000000000          32                     0    1           1
 -4  STRESS      6    1
 -5  SXX         1    4    1    1
 -5  SYY         1    4    2    2
 -5  SZZ         1    4    3    3
 -5  SXY         1    4    1    2
 -5  SYZ         1    4    2    3
 -5  SZX         1    4    3    1
 -1         1 4.62820E+06 1.79986E+06 1.79986E+06-2.72096E+05 1.49073E+00 2.73135E+05
 -1         2-4.62824E+06-1.79987E+06-1.79987E+06-2.72086E+05 1.49069E+00-2.73135E+05
 -1         3-5.90330E+05-2.82284E+05-1.12308E+05-4.39488E+05 8.98276E+04 4.40780E+04
 -1         4 5.90264E+05 2.82158E+05 1.12211E+05-4.39463E+05 8.98658E+04-4.40871E+04
 -1         5-5.90289E+05-2.82239E+05-1.12257E+05-4.39467E+05-8.98757E+04-4.40868E+04
 -1         6 5.90277E+05 2.82193E+05 1.12248E+05-4.39496E+05-8.98615E+04 4.40856E+04
 -1         7-4.62819E+06-1.79985E+06-1.79985E+06-2.72037E+05-1.49071E+00 2.73183E+05
 -1         8 4.62831E+06 1.79990E+06 1.79990E+06-2.72023E+05-1.49070E+00-2.73182E+05
 -1         9-1.38507E+01-5.38632E+00-5.38636E+00-2.41241E+05 1.49071E+00 3.50045E-01
 -1        10-2.32898E+06 3.31150E+05-1.53609E+04-3.73055E+05-2.02201E+05 7.04606E+04
 -1        11-3.38511E+06-4.73767E+05-7.03727E+04-4.33939E+04 2.59293E+05-6.12898E+04
 -1        12-1.17951E+06 1.37515E+05 5.96949E+04 1.18141E+04-4.96125E+04 1.72227E+04
 -1        13-4.53118E+01-6.81633E+01-5.53921E+01-4.73024E+05 8.98466E+04 4.78088E+00
 -1        14 2.32907E+06-3.31169E+05 1.53581E+04-3.73071E+05-2.02190E+05-7.04623E+04
 -1        15 3.38513E+06 4.73716E+05 7.03536E+04-4.34122E+04 2.59311E+05 6.13187E+04
 -1        16 1.17958E+06-1.37451E+05-5.96876E+04 1.18233E+04-4.96191E+04-1.72375E+04
 -1        17-5.75472E+05-2.76477E+05-1.06509E+05-3.94983E+05-2.38779E+01-4.21293E+00
 -1        18 5.21145E+00-1.89470E+01-2.35135E+00-4.73029E+05-8.98687E+04 8.43862E+00
 -1        19 5.75445E+05 2.76424E+05 1.06468E+05-3.94984E+05 2.30080E+00-9.83315E-01
 -1        20-2.32906E+06 3.31160E+05-1.53478E+04-3.73069E+05 2.02191E+05-7.04423E+04
 -1        21-1.17959E+06 1.37413E+05 5.96748E+04 1.18347E+04 4.96224E+04-1.72319E+04
 -1        22-3.38510E+06-4.73700E+05-7.03343E+04-4.33700E+04-2.59308E+05 6.13381E+04
 -1        23 5.67310E+01 2.20622E+01 2.20621E+01-2.41181E+05-1.49070E+00 5.44671E-01
 -1        24 2.32897E+06-3.31163E+05 1.53407E+04-3.73040E+05 2.02192E+05 7.04556E+04
 -1        25 1.17950E+06-1.37548E+05-5.97187E+04 1.18305E+04 4.95992E+04 1.72290E+04
 -1        26 3.38513E+06 4.73783E+05 7.03775E+04-4.33445E+04-2.59295E+05-6.13018E+04
 -1        27-4.64052E+06-1.80465E+06-1.80465E+06-3.18858E+05-2.26663E-06 2.33375E+01
 -1        28 4.64057E+06 1.80467E+06 1.80466E+06-3.18856E+05 2.42125E-05-2.37357E+01
 -1        29 4.49537E+01-1.12167E+01-3.05776E+00-3.74413E+05-2.02196E+05-9.05850E+00
 -1        30-4.48596E+01-2.77556E-01-2.63440E+00-3.74404E+05 2.02191E+05-1.67488E+00
 -1        31 2.32776E+06-3.31651E+05 1.48610E+04-3.48290E+05 2.56518E+00-3.57486E+00
 -1        32-2.32776E+06 3.31650E+05-1.48624E+04-3.48297E+05-3.50312E+00 8.86569E+00
 -3
    1PSTEP                         3           1           1          
  100CL  101 1.000000000          32                     0    1           1
 -4  TOSTRAIN    6    1
 -5  EXX         1    4    1    1
 -5  EYY         1    4    2    2
 -5  EZZ         1    4    3    3
 -5  EXY         1    4    1    2
 -5  EYZ         1    4    2    3
 -5  EZX         1    4    3    1
 -1         1 1.72394E-05 8.69962E-12-6.09696E-12-1.65849E-06 9.08634E-12 1.66482E-06
 -1         2-1.72396E-05-8.70053E-12 6.09726E-12-1.65843E-06 9.08609E-12-1.66482E-06
 -1         3-2.28497E-06-4.07357E-07 6.28685E-07-2.67878E-06 5.47521E-07 2.68666E-07
 -1         4 2.28495E-06 4.06977E-07-6.28892E-07-2.67863E-06 5.47753E-07-2.68721E-07
 -1         5-2.28491E-06-4.07265E-07 6.28812E-07-2.67865E-06-5.47814E-07-2.68719E-07
 -1         6 2.28492E-06 4.07077E-07-6.28779E-07-2.67883E-06-5.47727E-07 2.68712E-07
 -1         7-1.72394E-05-8.70036E-12 6.09726E-12-1.65813E-06-9.08625E-12 1.66511E-06
 -1         8 1.72399E-05 8.69997E-12-6.09735E-12-1.65804E-06-9.08618E-12-1.66511E-06
 -1         9-5.15923E-11 3.26665E-16 5.87919E-17-1.47042E-06 9.08624E-12 2.13361E-12
 -1        10-1.15114E-05 4.70269E-06 2.59062E-06-2.27386E-06-1.23246E-06 4.29474E-07
 -1        11-1.53940E-05 2.35127E-06 4.81006E-06-2.64496E-07 1.58046E-06-3.73576E-07
 -1        12-5.87966E-06 2.14792E-06 1.67359E-06 7.20097E-08-3.02400E-07 1.04976E-07
 -1        13-5.10300E-11-1.90315E-10-1.12472E-10-2.88319E-06 5.47637E-07 2.91406E-11
 -1        14 1.15119E-05-4.70291E-06-2.59074E-06-2.27396E-06-1.23240E-06-4.29485E-07
 -1        15 1.53942E-05-2.35152E-06-4.81011E-06-2.64608E-07 1.58056E-06 3.73752E-07
 -1        16 5.87988E-06-2.14771E-06-1.67373E-06 7.20661E-08-3.02440E-07-1.05067E-07
 -1        17-2.22970E-06-4.07251E-07 6.28748E-07-2.40752E-06-1.45541E-10-2.56788E-11
 -1        18 5.32143E-11-9.40374E-11 7.11718E-12-2.88323E-06-5.47771E-07 5.14354E-11
 -1        19 2.22969E-06 4.07087E-07-6.28835E-07-2.40752E-06 1.40239E-11-5.99354E-12
 -1        20-1.15119E-05 4.70283E-06 2.59079E-06-2.27395E-06 1.23240E-06-4.29363E-07
 -1        21-5.87987E-06 2.14757E-06 1.67373E-06 7.21353E-08 3.02460E-07-1.05032E-07
 -1        22-1.53941E-05 2.35153E-06 4.81014E-06-2.64351E-07-1.58055E-06 3.73870E-07
 -1        23 2.11315E-10 5.84419E-16-1.39492E-16-1.47005E-06-9.08619E-12 3.31990E-12
 -1        24 1.15114E-05-4.70271E-06-2.59069E-06-2.27377E-06 1.23241E-06 4.29444E-07
 -1        25 5.87970E-06-2.14804E-06-1.67365E-06 7.21097E-08 3.02319E-07 1.05015E-07
 -1        26 1.53941E-05-2.35123E-06-4.81008E-06-2.64195E-07-1.58047E-06-3.73649E-07
 -1        27-1.72853E-05-8.69960E-12 6.09717E-12-1.94352E-06-1.38157E-17 1.42248E-10
 -1        28 1.72855E-05 8.70064E-12-6.09724E-12-1.94350E-06 1.47581E-16-1.44675E-10
 -1        29 2.33098E-10-1.09274E-10-5.95434E-11-2.28213E-06-1.23243E-06-5.52137E-11
 -1        30-2.09735E-10 6.20037E-11 4.76382E-11-2.28208E-06 1.23240E-06-1.02088E-11
 -1        31 1.15070E-05-4.70279E-06-2.59071E-06-2.12291E-06 1.56354E-11-2.17896E-11
 -1        32-1.15069E-05 4.70278E-06 2.59070E-06-2.12295E-06-2.13524E-11 5.40385E-11
 -3
    1PSTEP                         4           1           1          
  100CL  101 1.000000000          32                     0    1           1
 -4  FORC        4    1
 -5  F1          1    2    1    0
 -5  F2          1    2    2    0
 -5  F3          1    2    3    0
 -5  ALL         1    2    0    0    1ALL
 -1         1-1.16585E+03 3.16872E+03-7.36835E+02
 -1         2 1.16590E+03 3.16878E+03 7.36973E+02
 -1         3 3.12577E-11 8.33340E+01 9.10205E-12
 -1         4 6.23306E-11 8.33340E+01-9.62386E-11
 -1         5 4.90523E-11 8.33340E+01 5.99627E-11
 -1         6-1.52747E-11 8.33340E+01-7.92348E-11
 -1         7 1.16584E+03 3.16873E+03-7.36859E+02
 -1         8-1.16588E+03 3.16873E+03 7.36969E+02
 -1         9-8.04521E-02-7.33572E+03-1.02882E-01
 -1        10-1.74820E-11-4.48885E-12 1.08455E-11
 -1        11-6.83640E-03 2.73435E-02-1.84775E-02
 -1        12 7.91757E-02 1.34911E-04 1.89470E-02
 -1        13-7.99129E-03-3.33332E+02 7.33175E-02
 -1        14-8.81784E-12 1.49099E-10-8.76568E-11
 -1        15-1.39874E-01-2.16680E-02-8.12750E-03
 -1        16 5.25094E-02 3.37007E-03 1.03508E-01
 -1        17-4.98161E-02-3.33166E+02 2.15472E-02
 -1        18-2.48965E-02-3.33389E+02-6.71027E-02
 -1        19 2.63796E-04-3.33418E+02-4.99414E-02
 -1        20 1.15262E-11-2.26797E-10 9.95670E-11
 -1        21-3.40081E-02 1.74053E-01 5.49439E-02
 -1        22 1.13679E-01-1.17311E-01 7.11579E-02
 -1        23-6.45351E-03-7.33576E+03-1.35130E-02
 -1        24-4.48353E-11-2.75119E-10 3.96782E-11
 -1        25 1.12546E-02-2.28295E-01-1.44327E-01
 -1        26 1.58374E-01 1.85584E-01 3.73950E-02
 -1        27 3.91815E+03 1.49816E+03-1.25771E-01
 -1        28-3.91823E+03 1.49831E+03-9.89441E-02
 -1        29-3.69149E-13-3.49997E-10 2.00912E-10
 -1        30 5.29234E-11 1.86100E-10-6.85547E-11
 -1        31-8.39412E-12-7.20176E-10-9.53659E-12
 -1        32 1.54992E-10-4.78825E-10-6.82316E-11
 -3
 9999
