    1C
    1UHash: v5AunGqV, Date: 01/14/2026, Unit system: M_KG_S_C           
    1UUSER                                                              
    1UDATE              17.january.2026                                 
    1UTIME              12:58:30                                        
    1UHOST                                                              
    1UPGM               CalculiX                                        
    1UVERSION           Version 2.23                             
    1UCOMPILETIME       Sun Jan 11 00:39:44 CET 2026                    
    1UDIR                                                               
    1UDBN                                                               
    1UMAT    1S235                                                      
    2C                            32                                     1
 -1         1-2.50000E-01 7.00000E-02-5.00000E-02
 -1         2-2.50000E-01-7.00000E-02-5.00000E-02
 -1         3 2.50000E-01-7.00000E-02-5.00000E-02
 -1         4 2.50000E-01 7.00000E-02-5.00000E-02
 -1         5 2.50000E-01-7.00000E-02 5.00000E-02
 -1         6 2.50000E-01 7.00000E-02 5.00000E-02
 -1         7-2.50000E-01-7.00000E-02 5.00000E-02
 -1         8-2.50000E-01 7.00000E-02 5.00000E-02
 -1         9-2.50000E-01 0.00000E+00-5.00000E-02
 -1        10 0.00000E+00-7.00000E-02-5.00000E-02
 -1        11-1.25000E-01-7.00000E-02-5.00000E-02
 -1        12 1.25000E-01-7.00000E-02-5.00000E-02
 -1        13 2.50000E-01 0.00000E+00-5.00000E-02
 -1        14 0.00000E+00 7.00000E-02-5.00000E-02
 -1        15-1.25000E-01 7.00000E-02-5.00000E-02
 -1        16 1.25000E-01 7.00000E-02-5.00000E-02
 -1        17 2.50000E-01-7.00000E-02 0.00000E+00
 -1        18 2.50000E-01 0.00000E+00 5.00000E-02
 -1        19 2.50000E-01 7.00000E-02 0.00000E+00
 -1        20 0.00000E+00-7.00000E-02 5.00000E-02
 -1        21 1.25000E-01-7.00000E-02 5.00000E-02
 -1        22-1.25000E-01-7.00000E-02 5.00000E-02
 -1        23-2.50000E-01 0.00000E+00 5.00000E-02
 -1        24 0.00000E+00 7.00000E-02 5.00000E-02
 -1        25 1.25000E-01 7.00000E-02 5.00000E-02
 -1        26-1.25000E-01 7.00000E-02 5.00000E-02
 -1        27-2.50000E-01-7.00000E-02 0.00000E+00
 -1        28-2.50000E-01 7.00000E-02 0.00000E+00
 -1        29 0.00000E+00 0.00000E+00-5.00000E-02
 -1        30 0.00000E+00 0.00000E+00 5.00000E-02
 -1        31 0.00000E+00 7.00000E-02 0.00000E+00
 -1        32 0.00000E+00-7.00000E-02 0.00000E+00
 -3
    3C                             2                                     1
 -1         1    4    0    1
 -2         1         2        10        14         8         7        20        24         9        11
 -2        29        15        28        27        32        31        23        22        30        26
 -1         2    4    0    1
 -2        14        10         3         4        24        20         5         6        29        12
 -2        13        16        31        32        17        19        30        21        18        25
 -3
    1PSTEP                         1           1           1          
  100CL  101 1.000000000          32                     0    1           1
 -4  DISP        4    1
 -5  D1          1    2    1    0
 -5  D2          1    2    2    0
 -5  D3          1    2    3    0
 -5  ALL         1    2    0    0    1ALL
 -1         1 0.00000E+00 0.00000E+00 0.00000E+00
 -1         2 0.00000E+00 0.00000E+00 0.00000E+00
 -1         3-1.74119E-06-8.44907E-06-5.62642E-09
 -1         4 1.74116E-06-8.44907E-06 5.75415E-09
 -1         5-1.74119E-06-8.44905E-06 5.77303E-09
 -1         6 1.74116E-06-8.44905E-06-5.64988E-09
 -1         7 0.00000E+00 0.00000E+00 0.00000E+00
 -1         8 0.00000E+00 0.00000E+00 0.00000E+00
 -1         9 0.00000E+00 0.00000E+00 0.00000E+00
 -1        10-1.27004E-06-2.63273E-06-3.49256E-08
 -1        11-6.86561E-07-7.47803E-07-9.04732E-08
 -1        12-1.60411E-06-5.33182E-06-2.53296E-08
 -1        13-1.53029E-11-8.45627E-06 6.49481E-11
 -1        14 1.26999E-06-2.63273E-06 3.50080E-08
 -1        15 6.86532E-07-7.47803E-07 9.05069E-08
 -1        16 1.60406E-06-5.33180E-06 2.54326E-08
 -1        17-1.74233E-06-8.44572E-06 7.21233E-11
 -1        18-1.69235E-11-8.45625E-06 6.15097E-11
 -1        19 1.74230E-06-8.44572E-06 5.23865E-11
 -1        20-1.27005E-06-2.63272E-06 3.50198E-08
 -1        21-1.60411E-06-5.33179E-06 2.54595E-08
 -1        22-6.86595E-07-7.47816E-07 9.04940E-08
 -1        23 0.00000E+00 0.00000E+00 0.00000E+00
 -1        24 1.26999E-06-2.63272E-06-3.49374E-08
 -1        25 1.60406E-06-5.33178E-06-2.53536E-08
 -1        26 6.86537E-07-7.47802E-07-9.04525E-08
 -1        27 0.00000E+00 0.00000E+00 0.00000E+00
 -1        28 0.00000E+00 0.00000E+00 0.00000E+00
 -1        29-1.61774E-11-2.57805E-06 4.21714E-11
 -1        30-3.09783E-11-2.57805E-06 4.05317E-11
 -1        31 1.27531E-06-2.66026E-06 3.49176E-11
 -1        32-1.27536E-06-2.66025E-06 4.83718E-11
 -3
    1PSTEP                         2           1           1          
  100CL  101 1.000000000          32                     0    1           1
 -4  STRESS      6    1
 -5  SXX         1    4    1    1
 -5  SYY         1    4    2    2
 -5  SZZ         1    4    3    3
 -5  SXY         1    4    1    2
 -5  SYZ         1    4    2    3
 -5  SZX         1    4    3    1
 -1         1 1.58518E+06 6.16458E+05 6.16457E+05-1.17624E+05 3.56274E-01 1.07304E+05
 -1         2-1.58525E+06-6.16485E+05-6.16484E+05-1.17623E+05 3.56283E-01-1.07286E+05
 -1         3-9.24416E+04-7.55717E+04-2.31149E+04-1.42462E+05 1.76498E+04 1.24926E+04
 -1         4 9.25045E+04 7.55836E+04 2.31184E+04-1.42484E+05 1.76273E+04-1.24725E+04
 -1         5-9.24527E+04-7.55872E+04-2.31025E+04-1.42492E+05-1.76428E+04-1.24813E+04
 -1         6 9.25134E+04 7.56048E+04 2.31226E+04-1.42478E+05-1.76241E+04 1.25001E+04
 -1         7-1.58538E+06-6.16537E+05-6.16536E+05-1.17643E+05-3.56446E-01 1.07283E+05
 -1         8 1.58520E+06 6.16468E+05 6.16468E+05-1.17625E+05-3.56346E-01-1.07255E+05
 -1         9-2.59344E+01-1.00853E+01-1.00853E+01-9.96900E+04 3.56420E-01 8.94392E+00
 -1        10-7.99630E+05 8.96306E+04-5.19023E+04-1.33761E+05-4.93413E+04 2.62346E+04
 -1        11-1.09337E+06-1.31755E+05 3.70035E+04-5.93117E+04 6.08701E+04-2.02023E+04
 -1        12-3.82111E+05 3.83645E+04 1.04092E+04-2.86875E+04-9.91170E+03-9.76608E+02
 -1        13 2.22662E+01 1.62496E+00-4.42390E+00-1.62784E+05 1.76362E+04 5.70553E+00
 -1        14 7.99601E+05-8.96315E+04 5.19016E+04-1.33791E+05-4.93608E+04-2.62079E+04
 -1        15 1.09333E+06 1.31744E+05-3.69981E+04-5.93302E+04 6.08728E+04 2.02137E+04
 -1        16 3.82152E+05-3.83049E+04-1.03749E+04-2.87103E+04-9.93911E+03 1.00114E+03
 -1        17-8.79773E+04-7.38501E+04-2.13729E+04-1.31014E+05 4.35991E+00 4.80047E+00
 -1        18 2.14622E+01 4.61110E+00 3.97240E+00-1.62796E+05-1.76357E+04 5.26608E+00
 -1        19 8.80241E+04 7.38412E+04 2.13739E+04-1.31018E+05 2.43714E+00 1.40191E+01
 -1        20-7.99574E+05 8.96246E+04-5.19099E+04-1.33744E+05 4.93424E+04-2.62096E+04
 -1        21-3.82108E+05 3.83337E+04 1.04006E+04-2.86982E+04 9.93151E+03 9.98052E+02
 -1        22-1.09338E+06-1.31749E+05 3.69902E+04-5.92923E+04-6.08715E+04 2.01765E+04
 -1        23-8.55675E+01-3.32759E+01-3.32760E+01-9.97014E+04-3.56255E-01 1.34828E+01
 -1        24 7.99598E+05-8.96198E+04 5.19105E+04-1.33763E+05 4.93550E+04 2.61992E+04
 -1        25 3.82162E+05-3.82983E+04-1.03691E+04-2.86943E+04 9.94079E+03-9.88769E+02
 -1        26 1.09334E+06 1.31780E+05-3.69822E+04-5.92988E+04-6.08527E+04-2.01825E+04
 -1        27-1.59102E+06-6.18729E+05-6.18728E+05-1.26673E+05 6.39054E-05-1.35547E+00
 -1        28 1.59090E+06 6.18684E+05 6.18683E+05-1.26666E+05 1.08946E-04 2.39746E+01
 -1        29-1.61122E+01-2.03260E+00-4.66566E+00-1.34964E+05-4.93531E+04 8.94815E+00
 -1        30 8.22455E+00-2.69382E-01-5.07404E+00-1.34942E+05 4.93467E+04-9.76473E+00
 -1        31 8.00211E+05-8.93939E+04 5.21422E+04-1.27009E+05-3.90866E+00-4.34119E+00
 -1        32-8.00220E+05 8.93814E+04-5.21479E+04-1.26984E+05-4.29762E-01 1.23108E+01
 -3
    1PSTEP                         3           1           1          
  100CL  101 1.000000000          32                     0    1           1
 -4  TOSTRAIN    6    1
 -5  EXX         1    4    1    1
 -5  EYY         1    4    2    2
 -5  EZZ         1    4    3    3
 -5  EXY         1    4    1    2
 -5  EYZ         1    4    2    3
 -5  EZX         1    4    3    1
 -1         1 5.90458E-06 2.88876E-12-3.23022E-12-7.16947E-07 2.17157E-12 6.54041E-07
 -1         2-5.90483E-06-2.89088E-12 3.22873E-12-7.16942E-07 2.17163E-12-6.53936E-07
 -1         3-3.08616E-07-2.05790E-07 1.13947E-07-8.68338E-07 1.07580E-07 7.61451E-08
 -1         4 3.08895E-07 2.05758E-07-1.14030E-07-8.68474E-07 1.07442E-07-7.60230E-08
 -1         5-3.08665E-07-2.05866E-07 1.14041E-07-8.68525E-07-1.07537E-07-7.60767E-08
 -1         6 3.08903E-07 2.05842E-07-1.14050E-07-8.68440E-07-1.07423E-07 7.61914E-08
 -1         7-5.90533E-06-2.89074E-12 3.22857E-12-7.17064E-07-2.17262E-12 6.53914E-07
 -1         8 5.90467E-06 2.88938E-12-3.22992E-12-7.16954E-07-2.17202E-12-6.53747E-07
 -1         9-9.66029E-11 9.62035E-16 8.51757E-16-6.07634E-07 2.17247E-12 5.45153E-11
 -1        10-3.85807E-06 1.56219E-06 6.99513E-07-8.15305E-07-3.00747E-07 1.59906E-07
 -1        11-5.08018E-06 7.81084E-07 1.80971E-06-3.61519E-07 3.71018E-07-1.23138E-07
 -1        12-1.88461E-06 6.78291E-07 5.07897E-07-1.74857E-07-6.04142E-08-5.95266E-09
 -1        13 1.09761E-10-1.60518E-11-5.29211E-11-9.92206E-07 1.07497E-07 3.47766E-11
 -1        14 3.85793E-06-1.56215E-06-6.99476E-07-8.15486E-07-3.00866E-07-1.59744E-07
 -1        15 5.07999E-06-7.81084E-07-1.80961E-06-3.61631E-07 3.71034E-07 1.23207E-07
 -1        16 1.88468E-06-6.78106E-07-5.07867E-07-1.74996E-07-6.05812E-08 6.10220E-09
 -1        17-2.91976E-07-2.05867E-07 1.13994E-07-7.98560E-07 2.65747E-11 2.92600E-11
 -1        18 9.07561E-11-1.19551E-11-1.58481E-11-9.92283E-07-1.07494E-07 3.20980E-11
 -1        19 2.92209E-07 2.05761E-07-1.14040E-07-7.98588E-07 1.48550E-11 8.54495E-11
 -1        20-3.85778E-06 1.56210E-06 6.99409E-07-8.15201E-07 3.00754E-07-1.59753E-07
 -1        21-1.88454E-06 6.78151E-07 5.07892E-07-1.74922E-07 6.05349E-08 6.08336E-09
 -1        22-5.08024E-06 7.81146E-07 1.80965E-06-3.61401E-07-3.71026E-07 1.22981E-07
 -1        23-3.18729E-10 1.34168E-15 9.19735E-16-6.07704E-07-2.17146E-12 8.21808E-11
 -1        24 3.85789E-06-1.56211E-06-6.99445E-07-8.15315E-07 3.00830E-07 1.59690E-07
 -1        25 1.88471E-06-6.78096E-07-5.07862E-07-1.74898E-07 6.05915E-08-6.02678E-09
 -1        26 5.07997E-06-7.80952E-07-1.80959E-06-3.61440E-07-3.70912E-07-1.23017E-07
 -1        27-5.92633E-06-2.88888E-12 3.23030E-12-7.72102E-07 3.89519E-16-8.26190E-12
 -1        28 5.92589E-06 2.89100E-12-3.22842E-12-7.72057E-07 6.64050E-16 1.46131E-10
 -1        29-6.77939E-11 1.80248E-11 1.97567E-12-8.22640E-07-3.00819E-07 5.45411E-11
 -1        30 4.62891E-11-5.48345E-12-3.47690E-11-8.22505E-07 3.00780E-07-5.95184E-11
 -1        31 3.86020E-06-1.56216E-06-6.99460E-07-7.74150E-07-2.38242E-11-2.64606E-11
 -1        32-3.86021E-06 1.56212E-06 6.99461E-07-7.73997E-07-2.61950E-12 7.50374E-11
 -3
    1PSTEP                         4           1           1          
  100CL  101 1.000000000          32                     0    1           1
 -4  FORC        4    1
 -5  F1          1    2    1    0
 -5  F2          1    2    2    0
 -5  F3          1    2    3    0
 -5  ALL         1    2    0    0    1ALL
 -1         1-6.86481E+02 9.12059E+02-4.55044E+02
 -1         2 6.86472E+02 9.12080E+02 4.55053E+02
 -1         3-4.37428E-12 8.33391E+01 2.76916E-11
 -1         4 1.46128E-12 8.33391E+01 3.79918E-13
 -1         5 8.03535E-12 8.33391E+01-7.31326E-12
 -1         6 1.47877E-11 8.33391E+01-1.33755E-11
 -1         7 6.86510E+02 9.12104E+02-4.55077E+02
 -1         8-6.86420E+02 9.12072E+02 4.55021E+02
 -1         9 7.97963E-02-2.13459E+03 1.72139E-02
 -1        10 1.58502E-11-3.58100E-11 2.72249E-12
 -1        11-2.58591E-03 8.56677E-03-1.97955E-02
 -1        12-1.52008E-01-1.68207E-01-1.13519E-02
 -1        13 2.57427E-02-3.33344E+02 2.62164E-02
 -1        14-1.27484E-11 4.32204E-12-1.25793E-11
 -1        15-2.46119E-01-1.06693E-02 2.16165E-02
 -1        16-1.30513E-01 4.86660E-02-1.63877E-01
 -1        17 2.90881E-02-3.33340E+02-1.01014E-02
 -1        18 1.20752E-01-3.33324E+02 6.27054E-02
 -1        19 1.13743E-01-3.33317E+02 2.58332E-02
 -1        20-9.73999E-12 1.45342E-11-8.67473E-13
 -1        21-1.67646E-02-1.24562E-02-7.23025E-02
 -1        22-2.06999E-01-2.42347E-02-3.64984E-02
 -1        23 1.59124E-01-2.13462E+03-9.98608E-02
 -1        24 2.01710E-11 1.30872E-10 3.16462E-12
 -1        25-6.36637E-03 8.87311E-02 1.54068E-01
 -1        26-9.06872E-02 9.53313E-02 8.98662E-02
 -1        27 2.19854E+03 8.10453E+02 6.50203E-02
 -1        28-2.19830E+03 8.10377E+02-2.00797E-03
 -1        29 1.13056E-11-6.00033E-11 6.25511E-12
 -1        30 8.35571E-12-8.19151E-11-2.55777E-11
 -1        31-9.00563E-12-6.04038E-11-2.60823E-11
 -1        32-4.45195E-11-2.39475E-11 2.16747E-11
 -3
 9999
